# vtk DataFile Version 3.0
Some data
ASCII
DATASET UNSTRUCTURED_GRID
POINTS 1029 float
0.0 0.0 0.0
0.8 0.0 0.0
1.6 0.0 0.0
2.4000000000000004 0.0 0.0
3.2 0.0 0.0
4.0 0.0 0.0
4.800000000000001 0.0 0.0
5.6000000000000005 0.0 0.0
6.4 0.0 0.0
7.2 0.0 0.0
8.0 0.0 0.0
8.8 0.0 0.0
9.600000000000001 0.0 0.0
10.4 0.0 0.0
11.200000000000001 0.0 0.0
12.0 0.0 0.0
12.8 0.0 0.0
13.600000000000001 0.0 0.0
14.4 0.0 0.0
15.200000000000001 0.0 0.0
16.0 0.0 0.0
0.0 0.3333333333333333 0.0
0.8 0.3333333333333333 0.0
1.6 0.3333333333333333 0.0
2.4000000000000004 0.3333333333333333 0.0
3.2 0.3333333333333333 0.0
4.0 0.3333333333333333 0.0
4.800000000000001 0.3333333333333333 0.0
5.6000000000000005 0.3333333333333333 0.0
6.4 0.3333333333333333 0.0
7.2 0.3333333333333333 0.0
8.0 0.3333333333333333 0.0
8.8 0.3333333333333333 0.0
9.600000000000001 0.3333333333333333 0.0
10.4 0.3333333333333333 0.0
11.200000000000001 0.3333333333333333 0.0
12.0 0.3333333333333333 0.0
12.8 0.3333333333333333 0.0
13.600000000000001 0.3333333333333333 0.0
14.4 0.3333333333333333 0.0
15.200000000000001 0.3333333333333333 0.0
16.0 0.3333333333333333 0.0
0.0 0.6666666666666666 0.0
0.8 0.6666666666666666 0.0
1.6 0.6666666666666666 0.0
2.4000000000000004 0.6666666666666666 0.0
3.2 0.6666666666666666 0.0
4.0 0.6666666666666666 0.0
4.800000000000001 0.6666666666666666 0.0
5.6000000000000005 0.6666666666666666 0.0
6.4 0.6666666666666666 0.0
7.2 0.6666666666666666 0.0
8.0 0.6666666666666666 0.0
8.8 0.6666666666666666 0.0
9.600000000000001 0.6666666666666666 0.0
10.4 0.6666666666666666 0.0
11.200000000000001 0.6666666666666666 0.0
12.0 0.6666666666666666 0.0
12.8 0.6666666666666666 0.0
13.600000000000001 0.6666666666666666 0.0
14.4 0.6666666666666666 0.0
15.200000000000001 0.6666666666666666 0.0
16.0 0.6666666666666666 0.0
0.0 1.0 0.0
0.8 1.0 0.0
1.6 1.0 0.0
2.4000000000000004 1.0 0.0
3.2 1.0 0.0
4.0 1.0 0.0
4.800000000000001 1.0 0.0
5.6000000000000005 1.0 0.0
6.4 1.0 0.0
7.2 1.0 0.0
8.0 1.0 0.0
8.8 1.0 0.0
9.600000000000001 1.0 0.0
10.4 1.0 0.0
11.200000000000001 1.0 0.0
12.0 1.0 0.0
12.8 1.0 0.0
13.600000000000001 1.0 0.0
14.4 1.0 0.0
15.200000000000001 1.0 0.0
16.0 1.0 0.0
0.0 1.3333333333333333 0.0
0.8 1.3333333333333333 0.0
1.6 1.3333333333333333 0.0
2.4000000000000004 1.3333333333333333 0.0
3.2 1.3333333333333333 0.0
4.0 1.3333333333333333 0.0
4.800000000000001 1.3333333333333333 0.0
5.6000000000000005 1.3333333333333333 0.0
6.4 1.3333333333333333 0.0
7.2 1.3333333333333333 0.0
8.0 1.3333333333333333 0.0
8.8 1.3333333333333333 0.0
9.600000000000001 1.3333333333333333 0.0
10.4 1.3333333333333333 0.0
11.200000000000001 1.3333333333333333 0.0
12.0 1.3333333333333333 0.0
12.8 1.3333333333333333 0.0
13.600000000000001 1.3333333333333333 0.0
14.4 1.3333333333333333 0.0
15.200000000000001 1.3333333333333333 0.0
16.0 1.3333333333333333 0.0
0.0 1.6666666666666665 0.0
0.8 1.6666666666666665 0.0
1.6 1.6666666666666665 0.0
2.4000000000000004 1.6666666666666665 0.0
3.2 1.6666666666666665 0.0
4.0 1.6666666666666665 0.0
4.800000000000001 1.6666666666666665 0.0
5.6000000000000005 1.6666666666666665 0.0
6.4 1.6666666666666665 0.0
7.2 1.6666666666666665 0.0
8.0 1.6666666666666665 0.0
8.8 1.6666666666666665 0.0
9.600000000000001 1.6666666666666665 0.0
10.4 1.6666666666666665 0.0
11.200000000000001 1.6666666666666665 0.0
12.0 1.6666666666666665 0.0
12.8 1.6666666666666665 0.0
13.600000000000001 1.6666666666666665 0.0
14.4 1.6666666666666665 0.0
15.200000000000001 1.6666666666666665 0.0
16.0 1.6666666666666665 0.0
0.0 2.0 0.0
0.8 2.0 0.0
1.6 2.0 0.0
2.4000000000000004 2.0 0.0
3.2 2.0 0.0
4.0 2.0 0.0
4.800000000000001 2.0 0.0
5.6000000000000005 2.0 0.0
6.4 2.0 0.0
7.2 2.0 0.0
8.0 2.0 0.0
8.8 2.0 0.0
9.600000000000001 2.0 0.0
10.4 2.0 0.0
11.200000000000001 2.0 0.0
12.0 2.0 0.0
12.8 2.0 0.0
13.600000000000001 2.0 0.0
14.4 2.0 0.0
15.200000000000001 2.0 0.0
16.0 2.0 0.0
0.0 0.0 1.6666666666666667
0.8 0.0 1.6666666666666667
1.6 0.0 1.6666666666666667
2.4000000000000004 0.0 1.6666666666666667
3.2 0.0 1.6666666666666667
4.0 0.0 1.6666666666666667
4.800000000000001 0.0 1.6666666666666667
5.6000000000000005 0.0 1.6666666666666667
6.4 0.0 1.6666666666666667
7.2 0.0 1.6666666666666667
8.0 0.0 1.6666666666666667
8.8 0.0 1.6666666666666667
9.600000000000001 0.0 1.6666666666666667
10.4 0.0 1.6666666666666667
11.200000000000001 0.0 1.6666666666666667
12.0 0.0 1.6666666666666667
12.8 0.0 1.6666666666666667
13.600000000000001 0.0 1.6666666666666667
14.4 0.0 1.6666666666666667
15.200000000000001 0.0 1.6666666666666667
16.0 0.0 1.6666666666666667
0.0 0.3333333333333333 1.6666666666666667
0.8 0.3333333333333333 1.6666666666666667
1.6 0.3333333333333333 1.6666666666666667
2.4000000000000004 0.3333333333333333 1.6666666666666667
3.2 0.3333333333333333 1.6666666666666667
4.0 0.3333333333333333 1.6666666666666667
4.800000000000001 0.3333333333333333 1.6666666666666667
5.6000000000000005 0.3333333333333333 1.6666666666666667
6.4 0.3333333333333333 1.6666666666666667
7.2 0.3333333333333333 1.6666666666666667
8.0 0.3333333333333333 1.6666666666666667
8.8 0.3333333333333333 1.6666666666666667
9.600000000000001 0.3333333333333333 1.6666666666666667
10.4 0.3333333333333333 1.6666666666666667
11.200000000000001 0.3333333333333333 1.6666666666666667
12.0 0.3333333333333333 1.6666666666666667
12.8 0.3333333333333333 1.6666666666666667
13.600000000000001 0.3333333333333333 1.6666666666666667
14.4 0.3333333333333333 1.6666666666666667
15.200000000000001 0.3333333333333333 1.6666666666666667
16.0 0.3333333333333333 1.6666666666666667
0.0 0.6666666666666666 1.6666666666666667
0.8 0.6666666666666666 1.6666666666666667
1.6 0.6666666666666666 1.6666666666666667
2.4000000000000004 0.6666666666666666 1.6666666666666667
3.2 0.6666666666666666 1.6666666666666667
4.0 0.6666666666666666 1.6666666666666667
4.800000000000001 0.6666666666666666 1.6666666666666667
5.6000000000000005 0.6666666666666666 1.6666666666666667
6.4 0.6666666666666666 1.6666666666666667
7.2 0.6666666666666666 1.6666666666666667
8.0 0.6666666666666666 1.6666666666666667
8.8 0.6666666666666666 1.6666666666666667
9.600000000000001 0.6666666666666666 1.6666666666666667
10.4 0.6666666666666666 1.6666666666666667
11.200000000000001 0.6666666666666666 1.6666666666666667
12.0 0.6666666666666666 1.6666666666666667
12.8 0.6666666666666666 1.6666666666666667
13.600000000000001 0.6666666666666666 1.6666666666666667
14.4 0.6666666666666666 1.6666666666666667
15.200000000000001 0.6666666666666666 1.6666666666666667
16.0 0.6666666666666666 1.6666666666666667
0.0 1.0 1.6666666666666667
0.8 1.0 1.6666666666666667
1.6 1.0 1.6666666666666667
2.4000000000000004 1.0 1.6666666666666667
3.2 1.0 1.6666666666666667
4.0 1.0 1.6666666666666667
4.800000000000001 1.0 1.6666666666666667
5.6000000000000005 1.0 1.6666666666666667
6.4 1.0 1.6666666666666667
7.2 1.0 1.6666666666666667
8.0 1.0 1.6666666666666667
8.8 1.0 1.6666666666666667
9.600000000000001 1.0 1.6666666666666667
10.4 1.0 1.6666666666666667
11.200000000000001 1.0 1.6666666666666667
12.0 1.0 1.6666666666666667
12.8 1.0 1.6666666666666667
13.600000000000001 1.0 1.6666666666666667
14.4 1.0 1.6666666666666667
15.200000000000001 1.0 1.6666666666666667
16.0 1.0 1.6666666666666667
0.0 1.3333333333333333 1.6666666666666667
0.8 1.3333333333333333 1.6666666666666667
1.6 1.3333333333333333 1.6666666666666667
2.4000000000000004 1.3333333333333333 1.6666666666666667
3.2 1.3333333333333333 1.6666666666666667
4.0 1.3333333333333333 1.6666666666666667
4.800000000000001 1.3333333333333333 1.6666666666666667
5.6000000000000005 1.3333333333333333 1.6666666666666667
6.4 1.3333333333333333 1.6666666666666667
7.2 1.3333333333333333 1.6666666666666667
8.0 1.3333333333333333 1.6666666666666667
8.8 1.3333333333333333 1.6666666666666667
9.600000000000001 1.3333333333333333 1.6666666666666667
10.4 1.3333333333333333 1.6666666666666667
11.200000000000001 1.3333333333333333 1.6666666666666667
12.0 1.3333333333333333 1.6666666666666667
12.8 1.3333333333333333 1.6666666666666667
13.600000000000001 1.3333333333333333 1.6666666666666667
14.4 1.3333333333333333 1.6666666666666667
15.200000000000001 1.3333333333333333 1.6666666666666667
16.0 1.3333333333333333 1.6666666666666667
0.0 1.6666666666666665 1.6666666666666667
0.8 1.6666666666666665 1.6666666666666667
1.6 1.6666666666666665 1.6666666666666667
2.4000000000000004 1.6666666666666665 1.6666666666666667
3.2 1.6666666666666665 1.6666666666666667
4.0 1.6666666666666665 1.6666666666666667
4.800000000000001 1.6666666666666665 1.6666666666666667
5.6000000000000005 1.6666666666666665 1.6666666666666667
6.4 1.6666666666666665 1.6666666666666667
7.2 1.6666666666666665 1.6666666666666667
8.0 1.6666666666666665 1.6666666666666667
8.8 1.6666666666666665 1.6666666666666667
9.600000000000001 1.6666666666666665 1.6666666666666667
10.4 1.6666666666666665 1.6666666666666667
11.200000000000001 1.6666666666666665 1.6666666666666667
12.0 1.6666666666666665 1.6666666666666667
12.8 1.6666666666666665 1.6666666666666667
13.600000000000001 1.6666666666666665 1.6666666666666667
14.4 1.6666666666666665 1.6666666666666667
15.200000000000001 1.6666666666666665 1.6666666666666667
16.0 1.6666666666666665 1.6666666666666667
0.0 2.0 1.6666666666666667
0.8 2.0 1.6666666666666667
1.6 2.0 1.6666666666666667
2.4000000000000004 2.0 1.6666666666666667
3.2 2.0 1.6666666666666667
4.0 2.0 1.6666666666666667
4.800000000000001 2.0 1.6666666666666667
5.6000000000000005 2.0 1.6666666666666667
6.4 2.0 1.6666666666666667
7.2 2.0 1.6666666666666667
8.0 2.0 1.6666666666666667
8.8 2.0 1.6666666666666667
9.600000000000001 2.0 1.6666666666666667
10.4 2.0 1.6666666666666667
11.200000000000001 2.0 1.6666666666666667
12.0 2.0 1.6666666666666667
12.8 2.0 1.6666666666666667
13.600000000000001 2.0 1.6666666666666667
14.4 2.0 1.6666666666666667
15.200000000000001 2.0 1.6666666666666667
16.0 2.0 1.6666666666666667
0.0 0.0 3.3333333333333335
0.8 0.0 3.3333333333333335
1.6 0.0 3.3333333333333335
2.4000000000000004 0.0 3.3333333333333335
[...]
POINT_DATA 1029
VECTORS Disp float
0.0 0.0 0.0
0.03475655795085284 -1.2603246103294783 0.03016737482946146
0.08369614818579636 -2.3749555298240024 0.06495667734287239
0.15138331416835651 -3.448621213015775 0.09273771950502642
0.24770636326544976 -4.4522127180876225 0.11791131513666771
0.3740162528484052 -5.362068415589521 0.13872472674481914
0.5297916239347733 -6.153187190339297 0.1543121904154554
0.7140901546333244 -6.8013919363672635 0.16356637247560055
0.9243932068551036 -7.2831138860634645 0.16571217847362105
1.154444042952766 -7.57823056260283 0.1620176541764725
1.393871264054468 -7.676567470479176 0.15867394875378818
1.6333835769530434 -7.5796704715943335 0.16215088071830838
1.863706289382702 -7.286027287467251 0.1660253682407231
2.0745200435332083 -6.805840158649846 0.16416289825863403
2.259662453255409 -6.159243713227986 0.1553700128124349
2.4167642161816776 -5.369780894358946 0.14052942341091063
2.545092519333742 -4.461536399322414 0.12086764392577834
2.6444236206083898 -3.4593039585527516 0.09754354825182276
2.716491986213131 -2.386504524688954 0.07204811677764206
2.7729886752028077 -1.2718104230335554 0.042833137360940673
2.8258830934451553 0.0 -0.0002445561348526606
0.4946459048959716 -0.05381922584748288 -0.015839360266348187
0.5159949961613407 -1.254729995723752 0.01580346944187043
0.5332062821070664 -2.3825436519100025 0.04114908313536862
0.5775608876219704 -3.4575352326060864 0.06263012361379805
0.6401356359239754 -4.465034453178305 0.08060878610488313
0.7227555043434217 -5.378317313711278 0.09540194810630644
0.8249475334177018 -6.172896510831608 0.10636432458567721
0.9460632110311302 -6.8244211473465 0.1129905993528625
1.0844502318773335 -7.30902606622655 0.11493323030255889
1.2360819967698085 -7.605819570975616 0.11298862402064995
1.394130636896665 -7.704251714445756 0.1109202383162796
1.552269256954477 -7.607283173106441 0.11294276940618865
1.7041863488714268 -7.311991280600969 0.1148812651870127
1.8431014708327063 -6.8289586396568405 0.11302260464408852
1.965071559917596 -6.179094622784731 0.10664338202809974
2.0685702158967763 -5.386246336523043 0.09619318857434166
2.1531268549082063 -4.4746756549741 0.08234236248302698
2.218489934901033 -3.4686740933448874 0.06587985907933396
2.266883112473643 -2.394747258291362 0.047040892582448035
2.2898530958367607 -1.2671252504274668 0.024417612109727968
2.3142889431225235 -0.05679580488125267 -0.006387966260741309
0.9616192910301543 -0.09344400839825083 -0.025884385498392806
0.9726277733090302 -1.2528524130220169 -0.0014007455209266444
0.9745485760916535 -2.384264269787903 0.016693930267085565
0.9917587277349876 -3.4629202500767637 0.03003275173787471
1.021317883838556 -4.472388535544542 0.040238801867988054
1.0610879120174697 -5.387841001334697 0.048028544621826694
1.1110148918923413 -6.1844801559324525 0.05344985092200691
1.1708506814507063 -6.838073792903145 0.05639206806481489
1.2401544909682818 -7.324463375053639 0.056798970034745475
1.3165364185042543 -7.621615638288912 0.054810606042633624
1.394336292317527 -7.718373351778169 0.05256896420222968
1.4722278736630423 -7.623104850307827 0.05458597124137314
1.548898830552968 -7.327483724473303 0.056381796304263765
1.6187310226189864 -6.842703826605276 0.055858570575918434
1.679405437249384 -6.1908204609881725 0.05294467695634684
1.7305835171493638 -5.395979390363562 0.04780491639043753
1.7721514607709554 -4.482329761068459 0.04070813189754127
1.8042154826941856 -3.474460370835278 0.03184645370395563
1.8247733696931832 -2.396999112572597 0.02076576247547096
1.8294311108660057 -1.264810505070309 0.00546432691608209
1.8417676889611139 -0.09802916545153711 -0.01626687063002112
1.4148671512659055 -0.11883845125965715 -0.03485566389639115
1.4178254534525774 -1.253170747101528 -0.01813348766329457
1.4081203360401022 -2.3828343277734216 -0.00801738592293943
1.4008821713580641 -3.4639842302827915 -0.0033049520808765753
1.3970425586044286 -4.474598513642124 -0.0013352993156712776
1.3944574977003215 -5.390804767900825 -0.0008903746960027857
1.392707168581131 -6.188214879173973 -0.001423977448695167
1.3920589999299293 -6.842708493255393 -0.0026417961197190863
1.3935113829561232 -7.329971351757907 -0.0042704570524480425
1.3964525558389336 -7.625829261829294 -0.00663090420656353
1.394519740288842 -7.717505011183099 -0.009480587629045769
1.392679020952161 -7.6273452306447584 -0.007035639273203764
1.3959087536142945 -7.333048668789878 -0.005055932121348403
1.3978822832203908 -6.8474324079089 -0.0037468528385285194
1.3980453658787155 -6.194695580610509 -0.0027224730715546203
1.3974713827343876 -5.399144401592911 -0.0021465177371046977
1.3965123696966402 -4.484815215422436 -0.002138727089073311
1.3948297663859237 -3.4758905920579206 -0.002991228659155274
1.3899592642119944 -2.395723441009768 -0.005687803376150434
1.3817156491224405 -1.2646525278369065 -0.012994274275634817
1.385406606927364 -0.12461412666368736 -0.026747880328901942
1.8644017868333327 -0.13243233947200128 -0.04407463620646614
1.8602509551814264 -1.2536789761296578 -0.0340227262832144
1.8397889009057435 -2.379334763779527 -0.0323219929731198
1.8099306054163753 -3.461021584412791 -0.036454524068561894
1.7729584027407697 -4.471582097033761 -0.042835095660492054
1.7278616665488555 -5.38727415620574 -0.049759371425110485
1.6745089196493101 -6.184144723105328 -0.05627514466588661
1.6132246208440726 -6.838310780295808 -0.06169872539242399
1.5463622828167913 -7.325808712945334 -0.06527639289399163
1.47676402673454 -7.619169323939278 -0.06684460448679441
1.3947081351040136 -7.699513287347474 -0.0694015716926995
1.312745151269238 -7.620712966037853 -0.06743241830739216
1.2434361895917048 -7.328944423734569 -0.06643681293804572
1.177089654661314 -6.843129365120379 -0.06338685221961
1.116591641249705 -6.190763763246715 -0.05838548412226307
1.0643406452433126 -5.395803798876204 -0.05207480174837931
1.0206909674327582 -4.482052676892084 -0.04495131666812483
0.9854496488336766 -3.473203612446328 -0.03769312386192877
0.9572016586524634 -2.3922517842494444 -0.03172198415769727
0.9375751188044802 -1.264857916178068 -0.030654607724648432
0.9338243204300576 -0.1389642722320357 -0.03773897447318708
2.3169433645749056 -0.13751865022559484 -0.054004317183680525
2.30718678976498 -1.2531538690879889 -0.049015248170484436
2.276380755769417 -2.3740813796875493 -0.05566864720966544
2.224685804994681 -3.454322318039792 -0.06851077676040962
2.1544620871031817 -4.463292399230334 -0.08298828915202677
2.0663827097267977 -5.377164694284581 -0.09696094139827241
1.9607400936963355 -6.172292181976583 -0.1091284272056132
1.8384094725671483 -6.824610467697509 -0.11835310606876201
1.700218330679989 -7.311677971937448 -0.12351925763592057
1.5569571479817235 -7.603521252374558 -0.12176116143128198
1.3949290680532143 -7.661135901004461 -0.11934876317752008
1.2329970685734712 -7.6050938201254334 -0.12253660014647803
1.0900330262648892 -7.314874143512466 -0.12506457246711478
0.9523644014846414 -6.829525582591846 -0.12064142205513478
0.8308123846856824 -6.179048361438287 -0.1120774571347409
0.72622105564818 -5.3858748197542825 -0.10037581110422344
0.6394234987559262 -4.473981606388137 -0.08647574042570548
0.5705229316007058 -3.4667035217543334 -0.0713702926139209
0.5198052393793535 -2.387013510516836 -0.056841316224714514
0.48934435703860135 -1.2641832274387743 -0.047404769565998706
0.4796887665855489 -0.14441438483582864 -0.04938223981256058
2.7762164258780193 -0.13855591291878355 -0.0643037446517111
2.765160782928419 -1.251391304049843 -0.06314049780732975
2.726023634903924 -2.3671748701846744 -0.07726027911049801
2.651683666216763 -3.443792242421181 -0.0980408078328936
2.5473781445265344 -4.449566176276769 -0.11980016159829046
2.4154070920277175 -5.360290758266062 -0.13999142003212403
2.256227133476451 -6.152248145982385 -0.15694249786333628
2.0708348606012716 -6.801880922157381 -0.16907344876574848
1.8609667443690736 -7.284934119805008 -0.17489018913773313
1.6274250902667722 -7.581813977460101 -0.16869263216061392
1.3952154129896586 -7.600000000000002 -0.1433560008307056
1.163109743490212 -7.583417884417426 -0.16966155174194017
0.9298874742833745 -7.2881950954889465 -0.17683307258405412
0.7205728563317947 -6.806897550053359 -0.1719833715298076
0.5359867380066506 -6.159144417997914 -0.16076323558093386
0.37785573207503403 -5.3691747738978455 -0.14455392001368825
0.24706575877406475 -4.4604376445307965 -0.12472421707355137
0.14374091108932355 -3.4562956575038544 -0.10259499634286917
0.06968580237439342 -2.3800812655901242 -0.08025482527932042
0.03014319067193933 -1.2623258386203764 -0.06323152983920471
0.01880072082293967 -0.14552869939297855 -0.061193995235858355
0.0 0.0 0.0
0.03251139880106351 -1.191198342691202 0.020079875577975005
0.08242759494892933 -2.2781334984347357 0.03835156668252546
0.15308719362147505 -3.322188372492724 0.05533328466918654
0.25061991133867917 -4.2988068401858195 0.06843861175829968
0.3760122551108244 -5.186279359957427 0.07763784936614888
0.5288094713854324 -5.962203362761128 0.08229993834968703
0.7082829010161047 -6.605061466690837 0.08199370273740678
0.9137220797081622 -7.093800961935383 0.07692123099894346
1.1442859508668373 -7.406298839788515 0.06924580528621598
1.3941529045655907 -7.516899823188147 0.0648060044114938
1.644048881605429 -7.406863766435699 0.06929143190951241
1.8747038713306947 -7.0949290726372105 0.0770454133744461
2.0803099544248025 -6.606748668912754 0.08226913343722915
2.2600547145131378 -5.964440418257981 0.08285262235352327
2.4132836679911853 -5.1890414276433106 0.07865854744906295
2.539368170093951 -4.302027950714171 0.07021639400072618
2.6380485582849538 -3.325707733930443 0.05817396300902305
2.7105737915660195 -2.2816352741816406 0.04308790914038638
2.7641753299823137 -1.1945486363791182 0.025543592366288302
2.8054459219215513 0.0 0.022421314872229522
0.48064992369512055 -0.034633825609761075 0.002959628349189431
0.5001117338245186 -1.189464838516602 0.009206333312853341
0.5238784473859562 -2.285824190679201 0.023943438535524674
0.5713375122047902 -3.3318142627435385 0.03602831968382924
0.6362675523206869 -4.312036125598327 0.045397767193894205
0.719779438632673 -5.202872735977909 0.051662031708532064
0.82155112235217 -5.982207501937985 0.054728541916283735
0.9410433718224829 -6.628449521864159 0.054473745483161334
1.0775058798418682 -7.12065634643521 0.051184304603166045
1.2299027127506834 -7.436704854668682 0.046097439768689914
1.3942791101356218 -7.549518202749985 0.04284563301464134
1.5586840350357698 -7.437275946592449 0.04597978741607791
1.7111701470155485 -7.121797200816598 0.050974661129883025
1.8477948651413911 -6.630157100313682 0.05423173496696834
1.9675470328776947 -5.984474853530708 0.054562889923275196
2.0697220461244266 -5.205680027969275 0.05175574106754324
2.153867638158291 -4.315327300861175 0.04602088596878891
2.2198045215174824 -3.335445781404047 0.037627485595542944
2.2689908746748335 -2.2895467184892406 0.02692280741705777
2.2957866717087825 -1.1932894708817865 0.015156106058185431
2.3169838972483943 -0.035230931720555254 0.01696880744875866
0.9422311292688754 -0.060981280873200816 -0.00532846194044983
0.9530208639729626 -1.1892318788243217 -0.0004156817458387916
0.9613056095328973 -2.28867773455799 0.009265225552129044
0.98304679206234 -3.337673115065308 0.017140306757811745
1.0155058492027997 -4.319777983527736 0.022610463514758664
1.0571142021780302 -5.212657702162254 0.025912469831667593
1.1078696089611908 -5.993976101859017 0.027183602190304083
1.1673078796953886 -6.642114464568503 0.02654053341427781
1.2346027343421704 -7.136243768516397 0.024132394901790647
1.3099386486614617 -7.455113642651914 0.020067799666104457
1.3944155047451638 -7.57134485918615 0.01647922092174446
1.478920072893717 -7.455693710953086 0.01978907197441607
1.5543420355596127 -7.137402880953752 0.02359423823869034
1.6217906461919398 -6.643850235594669 0.02579130639294532
1.6814684343745823 -5.996282801892458 0.026321005491847117
1.7325826130897728 -5.21551856534711 0.02511313693402094
1.7747307342268683 -4.323143559319999 0.02217301812617106
1.8080301201416376 -3.341409046873845 0.017521947127136464
1.8311667207314024 -2.292609611768129 0.011140805791351838
1.8409095855288315 -1.1928285199713935 0.004529311265674728
1.8523447583142723 -0.061540187371779326 0.0052527060897620955
1.394293116070792 -0.07868000323774013 -0.016497718237888037
1.397950436603582 -1.1900457330286836 -0.010993468517224157
1.3939486778257038 -2.288551925035476 -0.005373307942942841
1.39180280134038 -3.339396904289289 -0.001797770139183478
1.3914047466687811 -4.322372578652188 -0.0002469723531594119
1.3911535128401282 -5.215891488356517 -4.697603948345662e-05
1.3908868558651126 -5.997868615909408 -0.0007445325922071049
1.3904315430081708 -6.646457149983062 -0.0020693769634143725
1.3887759677346836 -7.140973640859376 -0.00396067768866535
1.387426941904284 -7.462586128073088 -0.007387242502723379
1.3945569552357444 -7.585308988600914 -0.012259341715311558
1.4017136750151213 -7.463177847316634 -0.007827351735398409
1.4004466876499257 -7.142156165630183 -0.00482782721898824
1.3989343040379003 -6.648228156902755 -0.0033256918463116197
1.3986936796066642 -6.000222249533171 -0.002302586906550055
1.3987311954512076 -5.218811780356917 -0.0017296894417797495
1.3989085353206567 -4.325811241053486 -0.0017324935392020427
1.399150600802594 -3.3432370109980876 -0.002558606262764375
1.397869346335262 -2.2925220538256945 -0.004573037613268531
1.3945352999150582 -1.193301370513719 -0.007248707863337359
1.3985078654016383 -0.07926779841555075 -0.008301981097133778
1.8432509063529345 -0.08875914680266231 -0.02802460338106659
1.8404372195938798 -1.1907746539505304 -0.021999607136795232
1.8251453327482108 -2.286330468211116 -0.019940332362952905
1.8005068753823599 -3.337227502636428 -0.020653630856402743
1.7674176631868557 -4.3198211207983395 -0.023032996478836998
1.7252100598707625 -5.212656656285168 -0.025963975198292716
1.6738406777764903 -5.993992516617292 -0.02865827407640252
1.6137110822664615 -6.6417490156900625 -0.03066681309647005
1.5438095201870508 -7.134925909534051 -0.03189156058577318
1.4648863189365702 -7.458688034600896 -0.033779800598879535
1.394701362952545 -7.593709271294021 -0.04041770456155982
1.3245421718369672 -7.459294081555122 -0.03438431790644101
1.2456971325904502 -7.13613696785365 -0.03309423632711643
1.1759283283406115 -6.643562159602662 -0.03244131543524961
1.1159885743050446 -5.996400369280312 -0.03092872952969902
1.0648677452335762 -5.215640296938347 -0.02855523862708117
1.022974984705207 -4.323332414454444 -0.025598249674430112
0.9902818142610795 -3.3411384791121996 -0.022586874708488414
0.9660611053518773 -2.290264511109804 -0.020296131607526295
0.9510123126774673 -1.1937657640173684 -0.01953470445590799
0.9483566708572979 -0.08939811960398328 -0.021834228222210088
2.2936212806262906 -0.09309834061462298 -0.038601237978359265
2.285341541518451 -1.19062506039287 -0.03274092296191836
2.2590864486246556 -2.2822614645042925 -0.03432075887938053
2.212529805911693 -3.331328416278299 -0.039304648393686685
2.1468224634132973 -4.312028323236275 -0.04559580995061756
2.0625774279094395 -5.202870439106035 -0.051582052710209374
1.9601320349331939 -5.982161999228906 -0.056167925493239144
1.8398446531417325 -6.628118309668613 -0.05856832411261228
1.7036272075773577 -7.118274095600615 -0.05870747918850209
1.546297232648223 -7.4410341057484715 -0.056878455764486566
1.3948464891581474 -7.598693045785328 -0.06392438968076893
1.2434208503263047 -7.441657331478787 -0.057653004107256246
1.0861661291843119 -7.11951916667797 -0.06025810974707097
0.9500731234967865 -6.6299811366329156 -0.06088282662367779
0.8299549356774432 -5.98463212043758 -0.059186595745247796
0.7277114863999136 -5.205923227717502 -0.05513894533195693
0.6436759322438436 -4.315607167685931 -0.04932755362816362
0.5781356595682863 -3.3352813199361386 -0.04253600861774366
0.5316305599704769 -2.28614760698804 -0.03599806886756211
0.5053110111940312 -1.193456358074505 -0.03162742489043511
0.4970477369586744 -0.09375851448676459 -0.03415019784723775
2.7479109853838084 -0.09448432873660943 -0.04672051795776144
2.7367868426410333 -1.1893507923054147 -0.04279297320674949
2.7002500748681566 -2.2762626164778688 -0.048592239541330164
2.631131768168433 -3.321511079132289 -0.05802886266656448
2.532609087349736 -4.2987677695742805 -0.06831433089345076
2.406364549658663 -5.186208267008669 -0.0773304938087144
2.252822527721488 -5.962168106688155 -0.08362434697263492
2.0724957718859214 -6.604513214133104 -0.08619633522950328
1.8674684581435166 -7.0928911659469005 -0.08438182507918995
1.6446672296008953 -7.405362014518233 -0.07775785494412682
1.3949867104628657 -7.600000000000002 -0.07478120048838947
1.1453309234059168 -7.406005501928525 -0.07871019401815532
0.92260322817503 -7.094176276659879 -0.08629779041543621
0.7176951395178284 -6.606434251049231 -0.08908204135442568
0.5375243819989126 -5.964710541311003 -0.08744392023611021
0.3841539713789682 -5.189338926159253 -0.081940432913809
0.2580471246867635 -4.302412853244261 -0.07335678559907804
0.159522632698776 -3.3254870053084233 -0.06278351389560756
0.0901356612956894 -2.280094516734101 -0.05187483810360202
0.05316237924497881 -1.1920868216706608 -0.043163765579763924
0.04185129508730735 -0.095115830501042 -0.04365503342905599
0.0 0.0 0.0
0.045134534036274286 -1.1608655917045154 0.00867598484919434
0.09492880288451366 -2.228556577681604 0.016280946416482908
0.16394546565040946 -3.257156785057114 0.023491159376137775
0.2586671042743436 -4.221966955027855 0.028600683788161853
0.37948815324650376 -5.102199572183865 0.03119202897984761
0.5260577153527186 -5.876953905531277 0.031060404359477215
0.6985952206219236 -6.526151211519674 0.02825115117279158
0.8993199275686306 -7.029114734049828 0.02335700342535698
1.13250705047325 -7.359692499628063 0.018088338317773428
1.3942228443477838 -7.479937785525427 0.015564697375629395
1.655904890533785 -7.359558549020251 0.018093194603122635
1.8889856339967108 -7.02880565372451 0.023386891415974585
2.089515054219347 -6.5255864161121675 0.02834991669428698
2.2617380358393384 -5.876019076134373 0.031300874290841815
2.4078223500639573 -5.1007629729943025 0.03167769550038303
2.5279091878051236 -4.219913770815888 0.029464224652181393
2.6215094776055716 -3.2544540063590452 0.024871840566515823
2.688855462372851 -2.225311164806665 0.01852288120724847
2.7352555336420785 -1.156992615351265 0.012469245601081824
2.7706413253474564 0.0 0.012722506467533604
0.48270851122961034 -0.02995025573092014 0.0003136899439160678
0.5026363721551946 -1.1606828057269267 0.004452380529104111
0.5289731350511655 -2.2365584308636777 0.010273325239861731
0.5761734506748364 -3.26731584707605 0.015522626197706479
0.6398383833498689 -4.235776524322082 0.01930702216738228
0.7209038534859379 -5.119546757121903 0.02123322877705812
0.8191244071204034 -5.898021198099252 0.021272140464150595
0.9346264974268147 -6.5512111148048735 0.01955982951802234
1.0684811155848435 -7.058850525419103 0.016535647937788493
1.2226539959095584 -7.394890210408565 0.01321958302186316
1.39420367097399 -7.51868448865501 0.011546964383279517
1.5657115525510135 -7.394744726892367 0.01312253484353392
1.7197543358779466 -7.058515374543024 0.016356042625800222
1.8533760948334546 -6.550599127848364 0.01933081342229007
1.96851694909366 -5.897006727278481 0.021052496018356723
2.0662085189477146 -5.117979690600416 0.021115712459217447
2.1465147462619534 -4.233514501011366 0.019420292624452874
2.2091075540791283 -3.2642864616990317 0.01606191010998999
2.2546736030362955 -2.2327741165980806 0.01152887646117419
2.2782755032304434 -1.1559160710484775 0.00791095963775119
2.29707204007055 -0.028470819639845248 0.010096886460869089
0.9389151083287579 -0.05162985027450478 -0.003008457446781793
0.9491636576039139 -1.160190379322912 -0.00017360341891613438
0.9588140196967946 -2.2402225546030743 0.0038068750255554414
0.9816567902256681 -3.273754535127855 0.007298611782828831