# vtk DataFile Version 3.0
Some data
ASCII
DATASET UNSTRUCTURED_GRID
POINTS 1029 float
0.0 0.0 0.0
0.8 0.0 0.0
1.6 0.0 0.0
2.4000000000000004 0.0 0.0
3.2 0.0 0.0
4.0 0.0 0.0
4.800000000000001 0.0 0.0
5.6000000000000005 0.0 0.0
6.4 0.0 0.0
7.2 0.0 0.0
8.0 0.0 0.0
8.8 0.0 0.0
9.600000000000001 0.0 0.0
10.4 0.0 0.0
11.200000000000001 0.0 0.0
12.0 0.0 0.0
12.8 0.0 0.0
13.600000000000001 0.0 0.0
14.4 0.0 0.0
15.200000000000001 0.0 0.0
16.0 0.0 0.0
0.0 0.3333333333333333 0.0
0.8 0.3333333333333333 0.0
1.6 0.3333333333333333 0.0
2.4000000000000004 0.3333333333333333 0.0
3.2 0.3333333333333333 0.0
4.0 0.3333333333333333 0.0
4.800000000000001 0.3333333333333333 0.0
5.6000000000000005 0.3333333333333333 0.0
6.4 0.3333333333333333 0.0
7.2 0.3333333333333333 0.0
8.0 0.3333333333333333 0.0
8.8 0.3333333333333333 0.0
9.600000000000001 0.3333333333333333 0.0
10.4 0.3333333333333333 0.0
11.200000000000001 0.3333333333333333 0.0
12.0 0.3333333333333333 0.0
12.8 0.3333333333333333 0.0
13.600000000000001 0.3333333333333333 0.0
14.4 0.3333333333333333 0.0
15.200000000000001 0.3333333333333333 0.0
16.0 0.3333333333333333 0.0
0.0 0.6666666666666666 0.0
0.8 0.6666666666666666 0.0
1.6 0.6666666666666666 0.0
2.4000000000000004 0.6666666666666666 0.0
3.2 0.6666666666666666 0.0
4.0 0.6666666666666666 0.0
4.800000000000001 0.6666666666666666 0.0
5.6000000000000005 0.6666666666666666 0.0
6.4 0.6666666666666666 0.0
7.2 0.6666666666666666 0.0
8.0 0.6666666666666666 0.0
8.8 0.6666666666666666 0.0
9.600000000000001 0.6666666666666666 0.0
10.4 0.6666666666666666 0.0
11.200000000000001 0.6666666666666666 0.0
12.0 0.6666666666666666 0.0
12.8 0.6666666666666666 0.0
13.600000000000001 0.6666666666666666 0.0
14.4 0.6666666666666666 0.0
15.200000000000001 0.6666666666666666 0.0
16.0 0.6666666666666666 0.0
0.0 1.0 0.0
0.8 1.0 0.0
1.6 1.0 0.0
2.4000000000000004 1.0 0.0
3.2 1.0 0.0
4.0 1.0 0.0
4.800000000000001 1.0 0.0
5.6000000000000005 1.0 0.0
6.4 1.0 0.0
7.2 1.0 0.0
8.0 1.0 0.0
8.8 1.0 0.0
9.600000000000001 1.0 0.0
10.4 1.0 0.0
11.200000000000001 1.0 0.0
12.0 1.0 0.0
12.8 1.0 0.0
13.600000000000001 1.0 0.0
14.4 1.0 0.0
15.200000000000001 1.0 0.0
16.0 1.0 0.0
0.0 1.3333333333333333 0.0
0.8 1.3333333333333333 0.0
1.6 1.3333333333333333 0.0
2.4000000000000004 1.3333333333333333 0.0
3.2 1.3333333333333333 0.0
4.0 1.3333333333333333 0.0
4.800000000000001 1.3333333333333333 0.0
5.6000000000000005 1.3333333333333333 0.0
6.4 1.3333333333333333 0.0
7.2 1.3333333333333333 0.0
8.0 1.3333333333333333 0.0
8.8 1.3333333333333333 0.0
9.600000000000001 1.3333333333333333 0.0
10.4 1.3333333333333333 0.0
11.200000000000001 1.3333333333333333 0.0
12.0 1.3333333333333333 0.0
12.8 1.3333333333333333 0.0
13.600000000000001 1.3333333333333333 0.0
14.4 1.3333333333333333 0.0
15.200000000000001 1.3333333333333333 0.0
16.0 1.3333333333333333 0.0
0.0 1.6666666666666665 0.0
0.8 1.6666666666666665 0.0
1.6 1.6666666666666665 0.0
2.4000000000000004 1.6666666666666665 0.0
3.2 1.6666666666666665 0.0
4.0 1.6666666666666665 0.0
4.800000000000001 1.6666666666666665 0.0
5.6000000000000005 1.6666666666666665 0.0
6.4 1.6666666666666665 0.0
7.2 1.6666666666666665 0.0
8.0 1.6666666666666665 0.0
8.8 1.6666666666666665 0.0
9.600000000000001 1.6666666666666665 0.0
10.4 1.6666666666666665 0.0
11.200000000000001 1.6666666666666665 0.0
12.0 1.6666666666666665 0.0
12.8 1.6666666666666665 0.0
13.600000000000001 1.6666666666666665 0.0
14.4 1.6666666666666665 0.0
15.200000000000001 1.6666666666666665 0.0
16.0 1.6666666666666665 0.0
0.0 2.0 0.0
0.8 2.0 0.0
1.6 2.0 0.0
2.4000000000000004 2.0 0.0
3.2 2.0 0.0
4.0 2.0 0.0
4.800000000000001 2.0 0.0
5.6000000000000005 2.0 0.0
6.4 2.0 0.0
7.2 2.0 0.0
8.0 2.0 0.0
8.8 2.0 0.0
9.600000000000001 2.0 0.0
10.4 2.0 0.0
11.200000000000001 2.0 0.0
12.0 2.0 0.0
12.8 2.0 0.0
13.600000000000001 2.0 0.0
14.4 2.0 0.0
15.200000000000001 2.0 0.0
16.0 2.0 0.0
0.0 0.0 1.6666666666666667
0.8 0.0 1.6666666666666667
1.6 0.0 1.6666666666666667
2.4000000000000004 0.0 1.6666666666666667
3.2 0.0 1.6666666666666667
4.0 0.0 1.6666666666666667
4.800000000000001 0.0 1.6666666666666667
5.6000000000000005 0.0 1.6666666666666667
6.4 0.0 1.6666666666666667
7.2 0.0 1.6666666666666667
8.0 0.0 1.6666666666666667
8.8 0.0 1.6666666666666667
9.600000000000001 0.0 1.6666666666666667
10.4 0.0 1.6666666666666667
11.200000000000001 0.0 1.6666666666666667
12.0 0.0 1.6666666666666667
12.8 0.0 1.6666666666666667
13.600000000000001 0.0 1.6666666666666667
14.4 0.0 1.6666666666666667
15.200000000000001 0.0 1.6666666666666667
16.0 0.0 1.6666666666666667
0.0 0.3333333333333333 1.6666666666666667
0.8 0.3333333333333333 1.6666666666666667
1.6 0.3333333333333333 1.6666666666666667
2.4000000000000004 0.3333333333333333 1.6666666666666667
3.2 0.3333333333333333 1.6666666666666667
4.0 0.3333333333333333 1.6666666666666667
4.800000000000001 0.3333333333333333 1.6666666666666667
5.6000000000000005 0.3333333333333333 1.6666666666666667
6.4 0.3333333333333333 1.6666666666666667
7.2 0.3333333333333333 1.6666666666666667
8.0 0.3333333333333333 1.6666666666666667
8.8 0.3333333333333333 1.6666666666666667
9.600000000000001 0.3333333333333333 1.6666666666666667
10.4 0.3333333333333333 1.6666666666666667
11.200000000000001 0.3333333333333333 1.6666666666666667
12.0 0.3333333333333333 1.6666666666666667
12.8 0.3333333333333333 1.6666666666666667
13.600000000000001 0.3333333333333333 1.6666666666666667
14.4 0.3333333333333333 1.6666666666666667
15.200000000000001 0.3333333333333333 1.6666666666666667
16.0 0.3333333333333333 1.6666666666666667
0.0 0.6666666666666666 1.6666666666666667
0.8 0.6666666666666666 1.6666666666666667
1.6 0.6666666666666666 1.6666666666666667
2.4000000000000004 0.6666666666666666 1.6666666666666667
3.2 0.6666666666666666 1.6666666666666667
4.0 0.6666666666666666 1.6666666666666667
4.800000000000001 0.6666666666666666 1.6666666666666667
5.6000000000000005 0.6666666666666666 1.6666666666666667
6.4 0.6666666666666666 1.6666666666666667
7.2 0.6666666666666666 1.6666666666666667
8.0 0.6666666666666666 1.6666666666666667
8.8 0.6666666666666666 1.6666666666666667
9.600000000000001 0.6666666666666666 1.6666666666666667
10.4 0.6666666666666666 1.6666666666666667
11.200000000000001 0.6666666666666666 1.6666666666666667
12.0 0.6666666666666666 1.6666666666666667
12.8 0.6666666666666666 1.6666666666666667
13.600000000000001 0.6666666666666666 1.6666666666666667
14.4 0.6666666666666666 1.6666666666666667
15.200000000000001 0.6666666666666666 1.6666666666666667
16.0 0.6666666666666666 1.6666666666666667
0.0 1.0 1.6666666666666667
0.8 1.0 1.6666666666666667
1.6 1.0 1.6666666666666667
2.4000000000000004 1.0 1.6666666666666667
3.2 1.0 1.6666666666666667
4.0 1.0 1.6666666666666667
4.800000000000001 1.0 1.6666666666666667
5.6000000000000005 1.0 1.6666666666666667
6.4 1.0 1.6666666666666667
7.2 1.0 1.6666666666666667
8.0 1.0 1.6666666666666667
8.8 1.0 1.6666666666666667
9.600000000000001 1.0 1.6666666666666667
10.4 1.0 1.6666666666666667
11.200000000000001 1.0 1.6666666666666667
12.0 1.0 1.6666666666666667
12.8 1.0 1.6666666666666667
13.600000000000001 1.0 1.6666666666666667
14.4 1.0 1.6666666666666667
15.200000000000001 1.0 1.6666666666666667
16.0 1.0 1.6666666666666667
0.0 1.3333333333333333 1.6666666666666667
0.8 1.3333333333333333 1.6666666666666667
1.6 1.3333333333333333 1.6666666666666667
2.4000000000000004 1.3333333333333333 1.6666666666666667
3.2 1.3333333333333333 1.6666666666666667
4.0 1.3333333333333333 1.6666666666666667
4.800000000000001 1.3333333333333333 1.6666666666666667
5.6000000000000005 1.3333333333333333 1.6666666666666667
6.4 1.3333333333333333 1.6666666666666667
7.2 1.3333333333333333 1.6666666666666667
8.0 1.3333333333333333 1.6666666666666667
8.8 1.3333333333333333 1.6666666666666667
9.600000000000001 1.3333333333333333 1.6666666666666667
10.4 1.3333333333333333 1.6666666666666667
11.200000000000001 1.3333333333333333 1.6666666666666667
12.0 1.3333333333333333 1.6666666666666667
12.8 1.3333333333333333 1.6666666666666667
13.600000000000001 1.3333333333333333 1.6666666666666667
14.4 1.3333333333333333 1.6666666666666667
15.200000000000001 1.3333333333333333 1.6666666666666667
16.0 1.3333333333333333 1.6666666666666667
0.0 1.6666666666666665 1.6666666666666667
0.8 1.6666666666666665 1.6666666666666667
1.6 1.6666666666666665 1.6666666666666667
2.4000000000000004 1.6666666666666665 1.6666666666666667
3.2 1.6666666666666665 1.6666666666666667
4.0 1.6666666666666665 1.6666666666666667
4.800000000000001 1.6666666666666665 1.6666666666666667
5.6000000000000005 1.6666666666666665 1.6666666666666667
6.4 1.6666666666666665 1.6666666666666667
7.2 1.6666666666666665 1.6666666666666667
8.0 1.6666666666666665 1.6666666666666667
8.8 1.6666666666666665 1.6666666666666667
9.600000000000001 1.6666666666666665 1.6666666666666667
10.4 1.6666666666666665 1.6666666666666667
11.200000000000001 1.6666666666666665 1.6666666666666667
12.0 1.6666666666666665 1.6666666666666667
12.8 1.6666666666666665 1.6666666666666667
13.600000000000001 1.6666666666666665 1.6666666666666667
14.4 1.6666666666666665 1.6666666666666667
15.200000000000001 1.6666666666666665 1.6666666666666667
16.0 1.6666666666666665 1.6666666666666667
0.0 2.0 1.6666666666666667
0.8 2.0 1.6666666666666667
1.6 2.0 1.6666666666666667
2.4000000000000004 2.0 1.6666666666666667
3.2 2.0 1.6666666666666667
4.0 2.0 1.6666666666666667
4.800000000000001 2.0 1.6666666666666667
5.6000000000000005 2.0 1.6666666666666667
6.4 2.0 1.6666666666666667
7.2 2.0 1.6666666666666667
8.0 2.0 1.6666666666666667
8.8 2.0 1.6666666666666667
9.600000000000001 2.0 1.6666666666666667
10.4 2.0 1.6666666666666667
11.200000000000001 2.0 1.6666666666666667
12.0 2.0 1.6666666666666667
12.8 2.0 1.6666666666666667
13.600000000000001 2.0 1.6666666666666667
14.4 2.0 1.6666666666666667
15.200000000000001 2.0 1.6666666666666667
16.0 2.0 1.6666666666666667
0.0 0.0 3.3333333333333335
0.8 0.0 3.3333333333333335
1.6 0.0 3.3333333333333335
2.4000000000000004 0.0 3.3333333333333335
[...]
POINT_DATA 1029
VECTORS Disp float
0.0 0.0 0.0
0.021951510284789633 -0.7959944907343355 0.01905307883969478
0.05286072517001908 -1.499971913572932 0.041025269900815314
0.09561051421164048 -2.178076555588759 0.058571191266406045
0.1564461241677068 -2.8119238219498532 0.07447030429692138
0.23622079127272277 -3.386569525635213 0.08761561689154443
0.3346052361693554 -3.886223488635009 0.09746033078879857
0.4510043081894776 -4.295615959810605 0.10330507735312051
0.5838272885400861 -4.599861401724025 0.10466032324665157
0.7291225534439215 -4.786250881643623 0.10232693948005475
0.8803397457187497 -4.848358402407606 0.10021512552893254
1.0316106801810676 -4.787160297848629 0.10241108255918446
1.177077656452442 -4.601701444715594 0.10485812731021343
1.3102231853895685 -4.2984253633571345 0.10368183047944356
1.4271552336351279 -3.8900486609853453 0.09812842914503145
1.5263773996937653 -3.3914405648574686 0.08875542531250298
1.6074268543160435 -2.817812462729194 0.07633745932194883
1.6701622866999766 -2.1848235527695135 0.06160645152793106
1.7156791491871428 -1.507266015592553 0.045504073754830614
1.7513612685490034 -0.8032486882314235 0.027052507807504116
1.7847682695441296 0.0 -0.0001544565055610479
0.3124079399343114 -0.03399109000892317 -0.010003806483997645
0.3258915765229684 -0.7924610499307241 0.009981138594895468
0.336761862383437 -1.5047644117325092 0.025988894611862982
0.3647752974454824 -2.18370646269842 0.039555867545625054
0.4042961911099091 -2.8200217599018598 0.05091081227685449
0.456477160637978 -3.396831987606846 0.06025386196197594
0.5210194947901503 -3.898671480524902 0.06717746815949079
0.5975136069670522 -4.310160724639573 0.07136248380194524
0.6849159359225545 -4.616226989195447 0.07258940861231515
0.7806833663809861 -4.803675518510679 0.07136123622376674
0.8805035601453708 -4.865843188070708 0.07005488735787965
0.9803805833398171 -4.804599898803653 0.07133227541470796
1.0763282203400055 -4.61809975616848 0.07255658853947537
1.164064086841845 -4.31302650925629 0.07138269767028774
1.2410978273164897 -3.9025860775474985 0.06735371496548453
1.3064653995138291 -3.4018397914874123 0.06075359278419425
1.3598695925736308 -2.826110939982886 0.052005702621302774
1.4011515378322246 -2.190741532638233 0.041608332050601105
1.4317156499833126 -1.5124719526045993 0.0297100374210434
1.446223007896853 -0.8002896318486341 0.015421649754121499
1.4616561746036258 -0.035871034661800444 -0.0040345050061166825
0.6073384995979971 -0.059017268462031425 -0.016348032946342628
0.6142912252478157 -0.7912752082243621 -0.0008846813816091746
0.6155043638473703 -1.5058511177606577 0.010543534905578956
0.6263739333063196 -2.1871075263641133 0.018968053729255575
0.645042874003314 -2.8246664435015942 0.025413980127244978
0.6701607865373661 -3.4028469482111023 0.030333817656007143
0.7016936159320256 -3.9059874669043997 0.03375780058245972
0.7394846409162644 -4.318783448149059 0.0356160429884665
0.7832554679799962 -4.625976868454666 0.035873033706343184
0.831496685371143 -4.813651982076969 0.03461722486925031
0.8806334477795681 -4.874762116912292 0.03320145107533132
0.9298281307346711 -4.814592537036095 0.03447535025799656
0.9782518929809401 -4.627884457561521 0.03560955556092391
1.0223564353384167 -4.321707679960559 0.03527909720620982
1.0606771182628627 -3.9099918700970395 0.033438743341255975
1.093000116094409 -3.407986983386679 0.03019257877334999
1.119253554171182 -2.8309451122530027 0.02571039909366754
1.1395045153858407 -2.194396023684785 0.020113549708288936
1.152488444016772 -1.5138941763611558 0.013115218406135172
1.1554301752838119 -0.7988276874125351 0.003451153842361329
1.1632216982912433 -0.06191315712721134 -0.0102738130288096
0.893600306062669 -0.07505586395344098 -0.02201410351350209
0.8954687074437268 -0.791476261327207 -0.011452729050472395
0.8893391596042687 -1.504947996488351 -0.005063612161804877
0.8847676871735152 -2.1877795138626523 -0.002087338156268058
0.8823426685922721 -2.8260622191421785 -0.0008433469361111241
0.8807099985475778 -3.404718800779201 -0.000562341913137016
0.8796045275249433 -3.9083462394780075 -0.0008993541779617597
0.8791951578505092 -4.321710627318895 -0.0016685028122699218
0.8801124523933621 -4.629455590583676 -0.002697130769757443
0.8819700352667106 -4.816313217997209 -0.004187939498653012
0.8807493096561604 -4.874213691273342 -0.005987739554937808
0.8795867500751352 -4.817270671985745 -0.004443561645928068
0.8816265812301733 -4.631399159235157 -0.0031932202868071792
0.8828730209813843 -4.324694152362846 -0.002366433371300318
0.8829760205550539 -3.912439314069028 -0.001719456676324468
0.8826135048849549 -3.409985937847335 -0.0013556954124253821
0.8820078124400635 -2.8325148728976246 -0.0013507750031035008
0.8809451156122405 -2.195299321299085 -0.0018891970473272294
0.8778690089760792 -1.5130884890583187 -0.0035922968685482277
0.8726625152353098 -0.7987279123177528 -0.008206910068179607
0.8749936464805232 -0.078703658945392 -0.016893398101775627
1.177516917999977 -0.08364147756123523 -0.027836612340919626
1.1748953401145645 -0.7917972480818175 -0.021488037652527003
1.161971937414137 -1.502737745544838 -0.02041389029876068
1.1431140665787536 -2.1859083691026533 -0.02302390993796126
1.119763201731003 -2.8241571139158466 -0.02705374462757004
1.0912810525571734 -3.402488940761268 -0.03142697142624945
1.057584580831162 -3.9057756145925544 -0.03554219663091044
1.018878707901547 -4.318933124397056 -0.038967616037109847
0.9766498628316738 -4.626826555544139 -0.04122719551176608
0.9326930695165496 -4.812106941435087 -0.042217644938783154
0.8808682958551958 -4.862850497271922 -0.043832571595130716
0.8291022008016767 -4.8130818732867064 -0.04258889577276737
0.7853281197421846 -4.628807004463361 -0.041960092381537355
0.7434250450493031 -4.32197644112797 -0.040033801401423055
0.7052157734209336 -3.9099560609971613 -0.03687504260305412
0.6722151443642783 -3.40787608349994 -0.032889348472134
0.644646926799736 -2.830770111720557 -0.028390305263520155
0.6223892518950698 -2.1936022815444005 -0.02380618349115186
0.6045484159911654 -1.5108958637360084 -0.02003493736213247
0.5921527066134987 -0.7988576312700685 -0.019360804878067028
0.5897837813243962 -0.08776690877802083 -0.023835141771839125
1.4633326513104283 -0.08685388435297786 -0.034107989800214504
1.4571706040620551 -0.7914656015291845 -0.03095699884448813
1.4377141615385514 -1.4994198187499044 -0.03515914560605121
1.4050647189439835 -2.1816772534986444 -0.043269964269652135
1.3607128971177798 -2.818921515303161 -0.05241365630642636
1.3050838166695558 -3.396104017442653 -0.06123848930402851
1.2383621644398133 -3.898289799142839 -0.0689232171823017
1.161100719516119 -4.310280295387592 -0.07474933014845937
1.0738221035873838 -4.617901877012842 -0.07801216271716802
0.9833413566200362 -4.802223948867909 -0.07690178616685978
0.8810078324546634 -4.8386121480027215 -0.07537816621712302
0.7787349906779922 -4.803217149552537 -0.07739153693428252
0.6884419113251968 -4.619920511691533 -0.07898815103145182
0.6014933062008521 -4.3133845784783755 -0.07619458235014213
0.5247236113804821 -3.9025568598549816 -0.07078576240036773
0.4586659298831446 -3.401605149317676 -0.06339524911788824
0.4038464202670213 -2.8256725935075386 -0.0546162571103758
0.360330272590079 -2.189496961107351 -0.045075974281854204
0.3282980459239941 -1.5075874803259492 -0.035899778667593925
0.3090595939193245 -0.7984315120663044 -0.029939854462063528
0.30296132626477096 -0.09120908515936144 -0.03118878303880099
1.7533998479229047 -0.08750899763288518 -0.0406128913589719
1.7464173365863138 -0.7903524025577282 -0.03987820914144569
1.7216991378340119 -1.4950578127480885 -0.048795965753948095
1.6747475786631862 -2.175026679423745 -0.061920510210166806
1.608870407069365 -2.8102523218588074 -0.07566325995669887
1.5255202686490752 -3.3854467946941282 -0.0884156337043471
1.4249855579851374 -3.885630407988603 -0.09912157759769907
1.3078957014324064 -4.295924792941203 -0.10678323079915981
1.1753474174962935 -4.601011023034462 -0.11045696156038584
1.0278474254316876 -4.788514091027178 -0.10654271504852302
0.8811886818881731 -4.8 -0.09054063210335074
0.7345956274674204 -4.789527084894808 -0.10715466425771782
0.5872973521789218 -4.6030705866240575 -0.11168404584214019
0.45509864610427475 -4.299093189506694 -0.10862107675516708
0.3385179397937023 -3.8899859482084294 -0.10153467510318764
0.2386457255211672 -3.3910577519346514 -0.091297212639604
0.15604153185746208 -2.817118512334494 -0.07877318973003128
0.09078373331978973 -2.182923573159686 -0.06479683979484284
0.044012085710400085 -1.5032092203722416 -0.05068725807048488
0.019037804635187172 -0.797258424391529 -0.039935703055654484
0.011874139467402855 -0.09191286277440291 -0.038648839095611245
0.0 0.0 0.0
0.020533515032257404 -0.7523357953838344 0.012682026680847997
0.0520595336519553 -1.4388211569060023 0.024222042115320756
0.09668664860302702 -2.0982242352583778 0.0349473376858641
0.15828625979282465 -2.7150358990645342 0.043224386373737926
0.23748142428048405 -3.2755448589202807 0.04903443117870964
0.33398492929601337 -3.7656021238489554 0.051978908431476394
0.44733656906275515 -4.171617768436143 0.05178549646584439
0.5770876292893298 -4.480295344380079 0.04858183010473596
0.7227069163369627 -4.677662425129483 0.04373419281252343
0.8805176239362471 -4.747515677802809 0.04093010804957616
1.0383466620666917 -4.67801922090644 0.043763009627302306
1.1840234976826525 -4.481007835349397 0.04866026107887368
1.3138799712157472 -4.172683369839111 0.05195945269750877
1.4274029775872707 -3.7670150010044425 0.052327972013094824
1.5241791587312563 -3.277289322721525 0.049679082599802214
1.6038114758487478 -2.7170702846609966 0.04434719621141845
1.6661359315482727 -2.100446989850307 0.03674145032197579
1.7119413420415253 -1.4410328047459129 0.02721341629973469
1.745794945251785 -0.7544517703444734 0.016132795179308105
1.7718605822660072 0.0 0.014160830446256953
0.3035683728600602 -0.02187399512194246 0.0018692389573854262
0.3158600424154656 -0.7512409506419805 0.005814526302877261
0.33087059834900345 -1.443678436218303 0.015122171706690486
0.36084474455037124 -2.104303744890467 0.02275472822143061
0.40185319093935296 -2.723391237219795 0.02867227401727749
0.4545975401890203 -3.286024885880577 0.03262865160548649
0.5188743930644827 -3.7782363170132705 0.03456539489461289
0.5943431822036283 -4.186389171703508 0.034404470831608934
0.6805300293737873 -4.4972566398536715 0.032326929223218885
0.7767806606846408 -4.696866224001151 0.029114172485693136
0.8805973327172743 -4.768116759631365 0.02706039979896106
0.9844320221279231 -4.69722691363701 0.029039865736741048
1.0807390402204105 -4.497977179462664 0.03219452281917741
1.1670283358788205 -4.187467642302848 0.03425162208473949
1.24266128392277 -3.7796683285451094 0.034460772583495995
1.3071928712364649 -3.28779791240107 0.03268783646413278
1.360337455678874 -2.72546987422753 0.029065822717593098
1.401981803063587 -2.1065973356230954 0.02376472774506571
1.433046868215567 -1.4460295064138688 0.01700387836922896
1.4499705295001495 -0.7536565079251124 0.00957227751104328
1.4633582508935825 -0.02225111477084955 0.010717141547229048
0.5950933448013568 -0.03851449318305168 -0.0033653443834373124
0.6019079140881475 -0.7510938182047554 -0.000262535839453212
0.6071403849681096 -1.4454806744575373 0.005851721401390598
0.6208716581446007 -2.1080040726726477 0.010825456899739492
0.6413721152859437 -2.7282808317015266 0.014280292746252147
0.6676510750597722 -3.292204864523314 0.016365770420113016
0.6997071214491268 -3.785669116963401 0.017168590857170866
0.7372470819128325 -4.195019661832579 0.016762442156548936
0.7797490953739766 -4.507101327483907 0.015241512569742072
0.8273296728388043 -4.708492826937949 0.012674399789343808
0.8806834766811714 -4.7819020163279 0.01040792900347679
0.9340547828802799 -4.708859185864801 0.012498361247299718
0.9816897066692547 -4.507833398496658 0.014901624151084656
1.024288829173874 -4.196115938269791 0.016289246143280645
1.061980063815529 -3.787125980141992 0.016623792942625996
1.0942627030040553 -3.2940117254818055 0.01586092859035745
1.1208825689853632 -2.730406458517307 0.014004011448601233
1.14191376008941 -2.1103636085513893 0.011066492922936636
1.1565263499355631 -1.4479639653268561 0.007036298395116867
1.1626797382286793 -0.7533653810343349 0.0028606176421018888
1.1699019526194676 -0.03886748676107703 0.0033174985836656413
0.8806061785709709 -0.04969263362380771 -0.010419611518660787
0.8829160652232622 -0.7516078313864571 -0.006943243274010446
0.8803886386267135 -1.4454012158117373 -0.0033936681744427986
0.8790333482149266 -2.1090927816562166 -0.001135433772042515
0.8787819452644501 -2.7299195233590687 -0.0001559825387401914
0.8786232712674074 -3.2942472558038913 -2.9669077443389704e-05
0.8784548563358194 -3.7881275468899434 -0.00047023111071207725
0.8781672903209119 -4.197762410515485 -0.0013069749240772381
0.8771216638323974 -4.510088615279482 -0.0025014806452602865
0.8762696475184668 -4.713212291414475 -0.004665626843578242
0.8807728138330908 -4.790721466484655 -0.007742742135697275
0.8852928473779748 -4.713586008831232 -0.004943590569403819
0.8844926448315262 -4.510835473029124 -0.003049154032687849
0.8835374551818204 -4.198880941201211 -0.002100436955169224
0.883385481856835 -3.7896140523361264 -0.0014542654142258727
0.8834091760744385 -3.2960916507511673 -0.0010924354364342088
0.8835211802025082 -2.7320913101384425 -0.001094206445290771
0.88367406366479 -2.1115181122088162 -0.001615961849609012
0.8828648503170051 -1.4479086655737357 -0.002888234281467157
0.8807591367884559 -0.7536640234821195 -0.0045781312814707036
0.8832681255168163 -0.05006387268344537 -0.005243356481726031
1.1641584671702045 -0.056058408506913925 -0.017699749503826544
1.1623814018486947 -0.7520682024949914 -0.013894488717948916
1.152723368051436 -1.4439981904489894 -0.012593894123920014
1.1371622370835368 -2.1077226332438794 -0.013044398435546365
1.1162637872758603 -2.7283080762934926 -0.014547155670738773
1.089606353602548 -3.292204203969361 -0.016398300125098433
1.057162533332485 -3.785679484179147 -0.018099962574396947
1.0191859466945763 -4.194788852014639 -0.019368513534409843
0.9750375916970476 -4.506268995495042 -0.020142038264464854
0.9251913593283134 -4.710750337642567 -0.021334610904287364
0.8808640187068308 -4.796026908185594 -0.02552697130173714
0.8365529506338498 -4.711133104139747 -0.021716411308989294
0.7867560837412985 -4.5070338744334375 -0.020901622943060635
0.7426915757940381 -4.195933995537992 -0.020489251853413607
0.7048348890347457 -3.787200233229068 -0.019533934439337736
0.6725480496212026 -3.2940886085920678 -0.018034887553434298
0.6460894640243583 -2.7305257354443055 -0.016167315583302682
0.6254411458491355 -2.1101927236493094 -0.014265394552148453
0.6101438560117588 -1.4464828491215993 -0.012818609435715942
0.6006393553752984 -0.753957324642312 -0.012337708076763605
0.598962107909928 -0.056461970276134366 -0.013790038876494454
1.4486029140796746 -0.05879895196709882 -0.024379729249485713
1.443373605169461 -0.7519737223533108 -0.020678477660131256
1.426791441236541 -1.4414282933709943 -0.021676268765872794
1.397387245838902 -2.1039968944913836 -0.02482398845909079
1.3558878716293896 -2.7233863094121897 -0.028797353652909037
1.302680480784866 -3.286023435224662 -0.03257813855366321
1.2379781273261998 -3.7782075784601354 -0.035474479258699905
1.1620071493526445 -4.186179985053714 -0.036990520491948384
1.075975078469884 -4.495752060379222 -0.037078407908266914
0.9766087785146108 -4.699600487841018 -0.03592323521939061
0.8809556773629689 -4.799174555232786 -0.0403732987454284
0.785318431784968 -4.69999410409153 -0.03641242364632843
0.6859996605373814 -4.496538421059289 -0.038057753524057256
0.6000461832610676 -4.187356507346573 -0.03845231155133539
0.524182064638355 -3.7797676550126 -0.037381007838597914
0.45960725456836865 -3.2879515122420426 -0.03482459705121839
0.40653216773298856 -2.7256466322220962 -0.031154244396157094
0.36513831130636115 -2.1064934652223215 -0.0268648475474423
0.33576666945513794 -1.4438826991499485 -0.022735622442035478
0.31914379654371233 -0.7537619103626132 -0.019975215719608357
0.3139248865003354 -0.0592159038863084 -0.021568546008076252
1.7355227276107177 -0.059674312886249886 -0.029507695552266358
1.7284969532468668 -0.7511689214559679 -0.027027140972656825
1.705421099916636 -1.4376395472490515 -0.030689835499733795
1.6617674325273415 -2.09779647103075 -0.036649807999851604
1.5995425814839805 -2.715011222888814 -0.04314589319574449
1.5198091892580605 -3.275499958110549 -0.048840311879022866
1.4228352806661813 -3.7655798568554544 -0.0528153770351401
1.3089446980331965 -4.171271503662871 -0.05443979067100884
1.179453763037984 -4.479720736387376 -0.053293784260252657
1.038737197642633 -4.677070746011391 -0.04911022417492998
0.8810442381869742 -4.8 -0.04723023188707288
0.723366898993056 -4.6774771591124535 -0.04971170148477204
0.5826967756893663 -4.480532385258387 -0.054503867630363384
0.4532811407480185 -4.1724847901358135 -0.05626234190756575
0.3394890833676916 -3.767185605037935 -0.05522773909594925
0.24262356087093165 -3.27747721652105 -0.051751852366044626
0.1629771313811679 -2.7173133809957974 -0.04633060143039014
0.10075113644144575 -2.1003075822995654 -0.039652745617648685
0.05692778608164181 -1.4400596947790427 -0.03276305564372619
0.033576239523324725 -0.7528969400022909 -0.027261325628646187
0.026432396897431078 -0.060073156105851934 -0.02757160005974046
0.0 0.0 0.0
0.028506021496565462 -0.7331782684448768 0.005479569378457759
0.059955033400698035 -1.4075094174830063 0.010282702999924566
0.10354450462124144 -2.057151653720127 0.014836521711303379
0.16336869743633334 -2.6665054452805923 0.018063589761020314
0.23967672836609016 -3.2224418350633326 0.019700228829464594
0.33224697811737053 -3.7117603613880923 0.019617097490298354
0.4412180340768822 -4.1217797125387134 0.017842832319781298
0.5679915332011456 -4.4394408846630515 0.014751791637224777
0.7152676108251635 -4.648226841870359 0.011424213674587718
0.8805617964301731 -4.724171232963359 0.00983033518484583
1.0458346677055603 -4.648142241486315 0.01142728080223374
1.193043558313727 -4.439245676036261 0.014770668262992297
1.3196937184543183 -4.1214229996494165 0.01790521054405822
1.4284661278985114 -3.7111699428212885 0.019768973236662407
1.5207299053034755 -3.221534509259046 0.02000696557957947
1.5965742238767882 -2.6652086973569524 0.01860898399129623
1.6556901963823016 -2.055444635594791 0.015708530884610522
1.6982245025510756 -1.4054596830354908 0.011698661815651561
1.727529810721081 -0.7307321781164116 0.007875313011807878
1.7498787317981412 0.0 0.00803526724328781
0.3048685334081346 -0.018915950987938166 0.0001981199645814407
0.3174545508348098 -0.7330628246695627 0.0028120298078756173
0.3340882958217257 -1.4125632194927273 0.006488415941008092
0.3638990214787646 -2.063567903416301 0.009803763914404986
0.40410845264192624 -2.6752272785190505 0.012193908737378481
0.4553076969383811 -3.233397951866311 0.013410460280350726
0.5173417308127725 -3.725066019852084 0.013435036082747109
0.5902904194273556 -4.137607019876721 0.012353576537849915
0.6748301782640241 -4.458221384475234 0.010443567118790976
0.772202523732292 -4.670456974994892 0.008349210329816625
0.8805496869309046 -4.748642834939943 0.007292819610749268
0.9888704542427189 -4.670365090668712 0.008287916743566097
1.0861606331860414 -4.458009710237441 0.010330132185021008
1.170553323052673 -4.137220501798599 0.012208934793364535
1.243273862585423 -3.7244253014386115 0.013296313275130256
1.304973801440583 -3.2324082256418336 0.013336239448347728
1.3556935239548087 -2.6737986322172573 0.012265447973807119
1.3952258236287864 -2.0616546073884487 0.010144364280508586
1.4240043808648712 -1.4101731262721737 0.0072813956602538815
1.4389108441453713 -0.730052255398861 0.0049963955612945705
1.4507823410970038 -0.017981570298833755 0.006376980923295551
0.592999015786516 -0.0326083264891432 -0.0019000783874365576