# vtk DataFile Version 3.0
Some data
ASCII
DATASET UNSTRUCTURED_GRID
POINTS 1029 float
0.0 0.0 0.0
0.8 0.0 0.0
1.6 0.0 0.0
2.4000000000000004 0.0 0.0
3.2 0.0 0.0
4.0 0.0 0.0
4.800000000000001 0.0 0.0
5.6000000000000005 0.0 0.0
6.4 0.0 0.0
7.2 0.0 0.0
8.0 0.0 0.0
8.8 0.0 0.0
9.600000000000001 0.0 0.0
10.4 0.0 0.0
11.200000000000001 0.0 0.0
12.0 0.0 0.0
12.8 0.0 0.0
13.600000000000001 0.0 0.0
14.4 0.0 0.0
15.200000000000001 0.0 0.0
16.0 0.0 0.0
0.0 0.3333333333333333 0.0
0.8 0.3333333333333333 0.0
1.6 0.3333333333333333 0.0
2.4000000000000004 0.3333333333333333 0.0
3.2 0.3333333333333333 0.0
4.0 0.3333333333333333 0.0
4.800000000000001 0.3333333333333333 0.0
5.6000000000000005 0.3333333333333333 0.0
6.4 0.3333333333333333 0.0
7.2 0.3333333333333333 0.0
8.0 0.3333333333333333 0.0
8.8 0.3333333333333333 0.0
9.600000000000001 0.3333333333333333 0.0
10.4 0.3333333333333333 0.0
11.200000000000001 0.3333333333333333 0.0
12.0 0.3333333333333333 0.0
12.8 0.3333333333333333 0.0
13.600000000000001 0.3333333333333333 0.0
14.4 0.3333333333333333 0.0
15.200000000000001 0.3333333333333333 0.0
16.0 0.3333333333333333 0.0
0.0 0.6666666666666666 0.0
0.8 0.6666666666666666 0.0
1.6 0.6666666666666666 0.0
2.4000000000000004 0.6666666666666666 0.0
3.2 0.6666666666666666 0.0
4.0 0.6666666666666666 0.0
4.800000000000001 0.6666666666666666 0.0
5.6000000000000005 0.6666666666666666 0.0
6.4 0.6666666666666666 0.0
7.2 0.6666666666666666 0.0
8.0 0.6666666666666666 0.0
8.8 0.6666666666666666 0.0
9.600000000000001 0.6666666666666666 0.0
10.4 0.6666666666666666 0.0
11.200000000000001 0.6666666666666666 0.0
12.0 0.6666666666666666 0.0
12.8 0.6666666666666666 0.0
13.600000000000001 0.6666666666666666 0.0
14.4 0.6666666666666666 0.0
15.200000000000001 0.6666666666666666 0.0
16.0 0.6666666666666666 0.0
0.0 1.0 0.0
0.8 1.0 0.0
1.6 1.0 0.0
2.4000000000000004 1.0 0.0
3.2 1.0 0.0
4.0 1.0 0.0
4.800000000000001 1.0 0.0
5.6000000000000005 1.0 0.0
6.4 1.0 0.0
7.2 1.0 0.0
8.0 1.0 0.0
8.8 1.0 0.0
9.600000000000001 1.0 0.0
10.4 1.0 0.0
11.200000000000001 1.0 0.0
12.0 1.0 0.0
12.8 1.0 0.0
13.600000000000001 1.0 0.0
14.4 1.0 0.0
15.200000000000001 1.0 0.0
16.0 1.0 0.0
0.0 1.3333333333333333 0.0
0.8 1.3333333333333333 0.0
1.6 1.3333333333333333 0.0
2.4000000000000004 1.3333333333333333 0.0
3.2 1.3333333333333333 0.0
4.0 1.3333333333333333 0.0
4.800000000000001 1.3333333333333333 0.0
5.6000000000000005 1.3333333333333333 0.0
6.4 1.3333333333333333 0.0
7.2 1.3333333333333333 0.0
8.0 1.3333333333333333 0.0
8.8 1.3333333333333333 0.0
9.600000000000001 1.3333333333333333 0.0
10.4 1.3333333333333333 0.0
11.200000000000001 1.3333333333333333 0.0
12.0 1.3333333333333333 0.0
12.8 1.3333333333333333 0.0
13.600000000000001 1.3333333333333333 0.0
14.4 1.3333333333333333 0.0
15.200000000000001 1.3333333333333333 0.0
16.0 1.3333333333333333 0.0
0.0 1.6666666666666665 0.0
0.8 1.6666666666666665 0.0
1.6 1.6666666666666665 0.0
2.4000000000000004 1.6666666666666665 0.0
3.2 1.6666666666666665 0.0
4.0 1.6666666666666665 0.0
4.800000000000001 1.6666666666666665 0.0
5.6000000000000005 1.6666666666666665 0.0
6.4 1.6666666666666665 0.0
7.2 1.6666666666666665 0.0
8.0 1.6666666666666665 0.0
8.8 1.6666666666666665 0.0
9.600000000000001 1.6666666666666665 0.0
10.4 1.6666666666666665 0.0
11.200000000000001 1.6666666666666665 0.0
12.0 1.6666666666666665 0.0
12.8 1.6666666666666665 0.0
13.600000000000001 1.6666666666666665 0.0
14.4 1.6666666666666665 0.0
15.200000000000001 1.6666666666666665 0.0
16.0 1.6666666666666665 0.0
0.0 2.0 0.0
0.8 2.0 0.0
1.6 2.0 0.0
2.4000000000000004 2.0 0.0
3.2 2.0 0.0
4.0 2.0 0.0
4.800000000000001 2.0 0.0
5.6000000000000005 2.0 0.0
6.4 2.0 0.0
7.2 2.0 0.0
8.0 2.0 0.0
8.8 2.0 0.0
9.600000000000001 2.0 0.0
10.4 2.0 0.0
11.200000000000001 2.0 0.0
12.0 2.0 0.0
12.8 2.0 0.0
13.600000000000001 2.0 0.0
14.4 2.0 0.0
15.200000000000001 2.0 0.0
16.0 2.0 0.0
0.0 0.0 1.6666666666666667
0.8 0.0 1.6666666666666667
1.6 0.0 1.6666666666666667
2.4000000000000004 0.0 1.6666666666666667
3.2 0.0 1.6666666666666667
4.0 0.0 1.6666666666666667
4.800000000000001 0.0 1.6666666666666667
5.6000000000000005 0.0 1.6666666666666667
6.4 0.0 1.6666666666666667
7.2 0.0 1.6666666666666667
8.0 0.0 1.6666666666666667
8.8 0.0 1.6666666666666667
9.600000000000001 0.0 1.6666666666666667
10.4 0.0 1.6666666666666667
11.200000000000001 0.0 1.6666666666666667
12.0 0.0 1.6666666666666667
12.8 0.0 1.6666666666666667
13.600000000000001 0.0 1.6666666666666667
14.4 0.0 1.6666666666666667
15.200000000000001 0.0 1.6666666666666667
16.0 0.0 1.6666666666666667
0.0 0.3333333333333333 1.6666666666666667
0.8 0.3333333333333333 1.6666666666666667
1.6 0.3333333333333333 1.6666666666666667
2.4000000000000004 0.3333333333333333 1.6666666666666667
3.2 0.3333333333333333 1.6666666666666667
4.0 0.3333333333333333 1.6666666666666667
4.800000000000001 0.3333333333333333 1.6666666666666667
5.6000000000000005 0.3333333333333333 1.6666666666666667
6.4 0.3333333333333333 1.6666666666666667
7.2 0.3333333333333333 1.6666666666666667
8.0 0.3333333333333333 1.6666666666666667
8.8 0.3333333333333333 1.6666666666666667
9.600000000000001 0.3333333333333333 1.6666666666666667
10.4 0.3333333333333333 1.6666666666666667
11.200000000000001 0.3333333333333333 1.6666666666666667
12.0 0.3333333333333333 1.6666666666666667
12.8 0.3333333333333333 1.6666666666666667
13.600000000000001 0.3333333333333333 1.6666666666666667
14.4 0.3333333333333333 1.6666666666666667
15.200000000000001 0.3333333333333333 1.6666666666666667
16.0 0.3333333333333333 1.6666666666666667
0.0 0.6666666666666666 1.6666666666666667
0.8 0.6666666666666666 1.6666666666666667
1.6 0.6666666666666666 1.6666666666666667
2.4000000000000004 0.6666666666666666 1.6666666666666667
3.2 0.6666666666666666 1.6666666666666667
4.0 0.6666666666666666 1.6666666666666667
4.800000000000001 0.6666666666666666 1.6666666666666667
5.6000000000000005 0.6666666666666666 1.6666666666666667
6.4 0.6666666666666666 1.6666666666666667
7.2 0.6666666666666666 1.6666666666666667
8.0 0.6666666666666666 1.6666666666666667
8.8 0.6666666666666666 1.6666666666666667
9.600000000000001 0.6666666666666666 1.6666666666666667
10.4 0.6666666666666666 1.6666666666666667
11.200000000000001 0.6666666666666666 1.6666666666666667
12.0 0.6666666666666666 1.6666666666666667
12.8 0.6666666666666666 1.6666666666666667
13.600000000000001 0.6666666666666666 1.6666666666666667
14.4 0.6666666666666666 1.6666666666666667
15.200000000000001 0.6666666666666666 1.6666666666666667
16.0 0.6666666666666666 1.6666666666666667
0.0 1.0 1.6666666666666667
0.8 1.0 1.6666666666666667
1.6 1.0 1.6666666666666667
2.4000000000000004 1.0 1.6666666666666667
3.2 1.0 1.6666666666666667
4.0 1.0 1.6666666666666667
4.800000000000001 1.0 1.6666666666666667
5.6000000000000005 1.0 1.6666666666666667
6.4 1.0 1.6666666666666667
7.2 1.0 1.6666666666666667
8.0 1.0 1.6666666666666667
8.8 1.0 1.6666666666666667
9.600000000000001 1.0 1.6666666666666667
10.4 1.0 1.6666666666666667
11.200000000000001 1.0 1.6666666666666667
12.0 1.0 1.6666666666666667
12.8 1.0 1.6666666666666667
13.600000000000001 1.0 1.6666666666666667
14.4 1.0 1.6666666666666667
15.200000000000001 1.0 1.6666666666666667
16.0 1.0 1.6666666666666667
0.0 1.3333333333333333 1.6666666666666667
0.8 1.3333333333333333 1.6666666666666667
1.6 1.3333333333333333 1.6666666666666667
2.4000000000000004 1.3333333333333333 1.6666666666666667
3.2 1.3333333333333333 1.6666666666666667
4.0 1.3333333333333333 1.6666666666666667
4.800000000000001 1.3333333333333333 1.6666666666666667
5.6000000000000005 1.3333333333333333 1.6666666666666667
6.4 1.3333333333333333 1.6666666666666667
7.2 1.3333333333333333 1.6666666666666667
8.0 1.3333333333333333 1.6666666666666667
8.8 1.3333333333333333 1.6666666666666667
9.600000000000001 1.3333333333333333 1.6666666666666667
10.4 1.3333333333333333 1.6666666666666667
11.200000000000001 1.3333333333333333 1.6666666666666667
12.0 1.3333333333333333 1.6666666666666667
12.8 1.3333333333333333 1.6666666666666667
13.600000000000001 1.3333333333333333 1.6666666666666667
14.4 1.3333333333333333 1.6666666666666667
15.200000000000001 1.3333333333333333 1.6666666666666667
16.0 1.3333333333333333 1.6666666666666667
0.0 1.6666666666666665 1.6666666666666667
0.8 1.6666666666666665 1.6666666666666667
1.6 1.6666666666666665 1.6666666666666667
2.4000000000000004 1.6666666666666665 1.6666666666666667
3.2 1.6666666666666665 1.6666666666666667
4.0 1.6666666666666665 1.6666666666666667
4.800000000000001 1.6666666666666665 1.6666666666666667
5.6000000000000005 1.6666666666666665 1.6666666666666667
6.4 1.6666666666666665 1.6666666666666667
7.2 1.6666666666666665 1.6666666666666667
8.0 1.6666666666666665 1.6666666666666667
8.8 1.6666666666666665 1.6666666666666667
9.600000000000001 1.6666666666666665 1.6666666666666667
10.4 1.6666666666666665 1.6666666666666667
11.200000000000001 1.6666666666666665 1.6666666666666667
12.0 1.6666666666666665 1.6666666666666667
12.8 1.6666666666666665 1.6666666666666667
13.600000000000001 1.6666666666666665 1.6666666666666667
14.4 1.6666666666666665 1.6666666666666667
15.200000000000001 1.6666666666666665 1.6666666666666667
16.0 1.6666666666666665 1.6666666666666667
0.0 2.0 1.6666666666666667
0.8 2.0 1.6666666666666667
1.6 2.0 1.6666666666666667
2.4000000000000004 2.0 1.6666666666666667
3.2 2.0 1.6666666666666667
4.0 2.0 1.6666666666666667
4.800000000000001 2.0 1.6666666666666667
5.6000000000000005 2.0 1.6666666666666667
6.4 2.0 1.6666666666666667
7.2 2.0 1.6666666666666667
8.0 2.0 1.6666666666666667
8.8 2.0 1.6666666666666667
9.600000000000001 2.0 1.6666666666666667
10.4 2.0 1.6666666666666667
11.200000000000001 2.0 1.6666666666666667
12.0 2.0 1.6666666666666667
12.8 2.0 1.6666666666666667
13.600000000000001 2.0 1.6666666666666667
14.4 2.0 1.6666666666666667
15.200000000000001 2.0 1.6666666666666667
16.0 2.0 1.6666666666666667
0.0 0.0 3.3333333333333335
0.8 0.0 3.3333333333333335
1.6 0.0 3.3333333333333335
2.4000000000000004 0.0 3.3333333333333335
[...]
POINT_DATA 1029
VECTORS Disp float
0.0 0.0 0.0
0.00914646261867526 -0.3316643711392843 0.007938782849884116
0.022025302154187888 -0.6249882973220159 0.017093862458690465
0.03983771425486375 -0.9075318981619369 0.024404663027693174
0.06518588506989423 -1.17163492581237 0.03102929345707637
0.0984253296969814 -1.4110706356812541 0.03650650703817004
0.13941884840390523 -1.6192597869311485 0.040608471162027905
0.1879184617456189 -1.789839983254323 0.04304378223050321
0.24326137022504302 -1.916608917384935 0.04360846801948845
0.3038010639349916 -1.9942712006847625 0.042636224783413695
0.36680822738285557 -2.0201493343364114 0.04175630230379219
0.42983778340883894 -1.9946501241034609 0.04267128439974285
0.49044902352191455 -1.9173756019646588 0.043690886379346164
0.5459263272457052 -1.7910105680652624 0.0432007626998675
0.594648014014679 -1.6208536087436618 0.04088684547720473
0.6359905832057576 -1.4131002353570215 0.03698142721365465
0.669761189298351 -1.1740885261369245 0.03180727471760835
0.6959009527916382 -0.9103431469870916 0.02566935480345326
0.7148663121612766 -0.6280275064967483 0.018960030731349532
0.7297338618953716 -0.33468695342966504 0.011271878253316932
0.7436534456433304 0.0 -6.435687710515979e-05
0.13016997497263413 -0.014162954170380567 -0.0041682527016619585
0.13578815688457552 -0.33019210413778066 0.004158807747882751
0.140317442659774 -0.6269851715551729 0.010828706088293042
0.15198970726895952 -0.9098776927909628 0.016481611477366074
0.16845674629580465 -1.1750090666257071 0.021212838448716666
0.19019881693249913 -1.4153466615027661 0.025105775817521915
0.21709145616256853 -1.6244464502186085 0.02799061173315817
0.2489640029029458 -1.7959003019330615 0.02973436825085448
0.28538163996774 -1.9234279121646898 0.030245586921853578
0.32528473599209434 -2.0015314660460404 0.02973384842663439
0.36687648339393775 -2.0274346616960277 0.0291895363991901
0.40849190972497174 -2.0019166245013906 0.029721781422883727
0.44847009180838554 -1.9242082317366893 0.030231911891546732
0.4850267028508098 -1.797094378856579 0.029742790696062418
0.5171240947152391 -1.6260775323112253 0.02806404790240271
0.5443605831307852 -1.4174332464528299 0.025313996993542254
0.5666123302390234 -1.1775462249926316 0.021669042759018573
0.5838131407634246 -0.9128089719323901 0.01733680502124258
0.5965481874930351 -0.6301966469184326 0.012379182258944322
0.6025929199570059 -0.3334540132701709 0.006425687397745525
0.6090234060848214 -0.014946264442403136 -0.0016810437523348393
0.2530577081658339 -0.024590528525839865 -0.006811680394305878
0.25595467718659204 -0.32969800342679517 -0.0003686172423277394
0.2564601516030744 -0.6274379657335694 0.004393139544007649
0.2609891388776368 -0.9112948026516664 0.007903355720546259
0.26876786416805143 -1.1769443514589275 0.010589158386381846
0.27923366105724023 -1.4178528950878702 0.012639090690039743
0.29237233997168327 -1.627494777876735 0.014065750242736253
0.30811860038178407 -1.79949310339535 0.014840017911912392
0.3263564449916736 -1.9274903618560337 0.014947097377703191
0.34645695223798467 -2.005688325865323 0.01442384369559092
0.3669306032415098 -2.0311508820467132 0.01383393794813188
0.38742838780615096 -2.0060802237649105 0.014364729274257856
0.4076049554087624 -1.9282851906504561 0.014837314817159317
0.4259818480577083 -1.8007115333166896 0.014699623836038418
0.44194879927622144 -1.6291632792068624 0.013932809725652284
0.45541671503935915 -1.4199945764108521 0.012580241155704143
0.4663556475713419 -1.1795604634385086 0.010712666289183204
0.4747935480774459 -0.9143316765351199 0.008380645711956196
0.4802035183403291 -0.6307892401503261 0.0054646743360734105
0.4814292397015945 -0.3328448697551305 0.0014379807678505882
0.4846757076213549 -0.025797148802980816 -0.004280755428453891
0.37233346085944263 -0.03127327664725917 -0.009172543130622936
0.3731119614348835 -0.3297817755529795 -0.004771970437687316
0.370557983168443 -0.6270616652034409 -0.0021098384007354996
0.36865320298896553 -0.9115747974427213 -0.0008697242317548247
0.36764277858011307 -1.1775259246425065 -0.00035139455668036705
0.3669624993948263 -1.4186328336579166 -0.00023430913043256984
0.3665018864687316 -1.6284775997824115 -0.00037473090743358854
0.3663313157710529 -1.8007127613827798 -0.0006952095050541821
0.36671352183057293 -1.9289398294097806 -0.0011238044873331074
0.3674875146944649 -2.0067971741654214 -0.0017449747910307767
0.3669788790234156 -2.030922371363836 -0.002494891481145231
0.3664944791979994 -2.0071961133272604 -0.0018514840190386773
0.3673444088459328 -1.9297496496811364 -0.0013305084527210772
0.3678637587422692 -1.8019558968176426 -0.0009860139045791542
0.3679066752312961 -1.6301830475285177 -0.000716440281659817
0.3677556270354221 -1.420827474102799 -0.0005648730883557696
0.36750325518338445 -1.180214530373771 -0.0005628229177926127
0.3670604648384579 -0.9147080505410768 -0.000787165436206913
0.36577875374005886 -0.630453537107479 -0.001496790361703289
0.36360938134807197 -0.3328032967989708 -0.003419545861536043
0.36458068603357574 -0.032793191227216606 -0.007038915875519641
0.49063204916664926 -0.034850615650505894 -0.011598588475380782
0.4895397250477277 -0.32991552003406793 -0.008953349021876842
0.48415497392255114 -0.6261407273103095 -0.008505787624466972
0.4762975277411433 -0.9107951537927188 -0.009593295807458888
0.4665680007212484 -1.1767321307981995 -0.01127239359478609
0.4547004385654908 -1.4177037253171112 -0.013094571427559728
0.44066024201299014 -1.6274065060801401 -0.014809248596156562
0.4245327949589849 -1.7995554684986748 -0.016236506682063067
0.40693744284653566 -1.927844398143299 -0.0171779981298306
0.3886221122985598 -2.005044558931214 -0.017590685391080548
0.3670284566063398 -2.026187707196589 -0.018263571497890103
0.34545925033404784 -2.0054507805360093 -0.017745373238549085
0.32722004989259396 -1.9286695851928901 -0.01748337182551745
0.30976043543722526 -1.8008235171364406 -0.016680750583786468
0.2938399055920764 -1.6291483587485742 -0.015364601084451934
0.28008964348514187 -1.4199483681247165 -0.013703895196554669
0.2686028861665872 -1.1794875465499914 -0.011829293859621507
0.25932885495631514 -0.9140009506432941 -0.009919243121123737
0.2518951733296943 -0.629539943223184 -0.008347890567355711
0.24673029442233668 -0.3328573463624366 -0.00806700203231734
0.24574324221854543 -0.036569545324141264 -0.009931309071375731
0.6097219380459995 -0.03618911848039849 -0.014211662416754443
0.6071544183591785 -0.3297773339704701 -0.012898749518527704
0.5990475673077201 -0.6247582578124197 -0.014649644002504165
0.5854436328933177 -0.909032188957714 -0.018029151778995257
0.5669637071324017 -1.1745506313762508 -0.021839023460973925
0.5437849236123145 -1.4150433406010259 -0.025516037209965505
0.5159842351832613 -1.6242874163094256 -0.028718007159231142
0.483791966465056 -1.7959501230780626 -0.03114555422845096
0.4474258764947502 -1.9241257820885882 -0.032505067798739136
0.40972556525834747 -2.000926645361561 -0.03204241090277327
0.3670865968561091 -2.016088395001109 -0.03140756925705353
0.32447291278249735 -2.001340478980108 -0.032246473722509425
0.28685079638549843 -1.9249668798712953 -0.03291172959630788
0.25062221091702686 -1.7972435743657693 -0.031747742645742816
0.21863483807521508 -1.6260653582726634 -0.02949406766665347
0.19111080411800327 -1.4173354788821044 -0.026414687132272012
0.16826934177796393 -1.1773635806278993 -0.022756773795799122
0.1501376135792501 -0.9122904004611886 -0.018781655950573743
0.13679085246839026 -0.6281614501356616 -0.014958241111290592
0.12877483079978383 -0.3326797966942009 -0.01247493935897785
0.1262338859437218 -0.03800378548303219 -0.012995326265939511
0.730583269967859 -0.03646208234702644 -0.016922038066237294
0.7276738902442806 -0.3293135010656968 -0.01661592047559375
0.7173746407641562 -0.6229407553116632 -0.020331652397461687
0.6978114911096485 -0.9062611164265094 -0.025800212587542212
0.6703626696122262 -1.170938467441105 -0.031526358315253925
0.6356334452704424 -1.4106028311224834 -0.03683984737676323
0.5937439824938071 -1.6190126699951626 -0.04130065733231027
0.5449565422635082 -1.7899686637254042 -0.044493012832899276
0.4897280906234672 -1.9170879262642648 -0.04602373398340264
0.42826976059655053 -1.9952142045945838 -0.044392797936794876
0.36716195078672803 -2.0 -0.03772526337631577
0.3060815114447286 -1.995636285372713 -0.04464777677393782
0.24470723007453188 -1.9179460777598476 -0.04653501910075552
0.1896244358767741 -1.7912888289609055 -0.0452587819811591
0.14104914158071621 -1.6208274784199328 -0.04230611462615065
0.09943571896718024 -1.412940729972507 -0.03804050526630384
0.06501730494065772 -1.1737993801391349 -0.032822162387309665
0.03782655554998035 -0.9095514888163307 -0.02699868324764168
0.018338369046081097 -0.6263371751549508 -0.021119690862489084
0.007932418598081697 -0.33219101016304564 -0.01663987627297002
0.00494755811150734 -0.03829702615596578 -0.01610368295627384
0.0 0.0 0.0
0.008555631263441948 -0.3134732480765713 0.0052841777836936474
0.021691472354981187 -0.5995088153774559 0.010092517548064332
0.040286103584590255 -0.8742600980242655 0.014561390702464145
0.06595260824700132 -1.131264957943495 0.018010160989082317
0.0989505934501886 -1.364810357883387 0.02043101299115714
0.13916038720665602 -1.569000884937008 0.02165787851314653
0.18639023710946437 -1.7381740701816726 0.02157729019414027
0.24045317887054224 -1.8667897268249838 0.020242429210352055
0.3011278818070705 -1.9490260104705814 0.018222580338608053
0.36688234330679576 -1.9781315324177684 0.01705421168739203
0.4326444425278211 -1.9491746753775816 0.018234587344787265
0.49334312403447184 -1.8670865980621132 0.020275108782953327
0.547449988006588 -1.7386180707661305 0.021649771957395557
0.59475124066137 -1.5695895837516607 0.021803321672234206
0.6350746494713511 -1.3655372178004586 0.020699617750043735
0.6682547816036251 -1.1321126186085653 0.018477998421563
0.6942233048117407 -0.8751862457708035 0.015308937634312634
0.7133088925172477 -0.6004303353106735 0.011338923458396764
0.727414560521512 -0.3143549043101236 0.006721997991570304
0.7382752426107597 0.0 0.00590034601947798
0.1264868220250192 -0.009114164634139162 0.0007788495655780712
0.13160835100643728 -0.3130170627674651 0.0024227192928727996
0.13786274931207812 -0.6015326817575823 0.006300904877801907
0.15035197689598087 -0.8767932270376371 0.009481136758950763
0.16743882955805384 -1.134746348841518 0.01194678084055891
0.1894156417454124 -1.3691770357835098 0.013595271502317628
0.21619766377685284 -1.5742651320888041 0.01440224787279308
0.24764299258482944 -1.7443288215430761 0.014335196179881602
0.2835541789057354 -1.8738569332723152 0.013469553843061786
0.3236586086185997 -1.9570275933337755 0.012130905202437158
0.3669155552988759 -1.9867153165130085 0.01127516658297777
0.41018000921998754 -1.9571778806819862 0.012099944057062027
0.4503079334251906 -1.874157158109304 0.013414384508088266
0.48626180661619 -1.7447781842926815 0.014271509202083364
0.5177755349678251 -1.574861803560273 0.014358655243244341
0.544663696348521 -1.369915796833598 0.013619931860189595
0.5668072731995146 -1.1356124475946197 0.012110759465811829
0.5841590846098003 -0.8777488898427933 0.009901969893941131
0.5971028617564491 -0.6025122943389876 0.00708494932069155
0.6041543872916878 -0.31402354496872364 0.003988448963130276
0.6097326045389475 -0.009271297821178635 0.0044654756448849805
0.2479555603338867 -0.016047705492931063 -0.0014022268264307063
0.25079496420338243 -0.3129557575852902 -0.00010938993309787659
0.25297516040336776 -0.6022836143572617 0.0024382172505942675
0.25869652422690553 -0.8783350302802144 0.00451060704158034
0.26723838136913197 -1.1367836798755728 0.005950121977634088
0.27818794794155977 -1.3717520268846504 0.0068190710084165265
0.2915446339371214 -1.577362132068021 0.007153579523865061
0.30718628413033167 -1.7479248590968561 0.006984350898613351
0.3248954564058128 -1.877958886451585 0.006350630237453546
0.34472069701616315 -1.9618720112241115 0.005280999912298586
0.3669514486171579 -1.992459173469898 0.0043366370848687994
0.38918949286679316 -1.9620246607768996 0.005207650519803248
0.40903737777886306 -1.8782639160401313 0.006209010063058359
0.42678701215578635 -1.748381640945579 0.006787185893151248
0.4424916932564703 -1.5779691583923008 0.006926580392891227
0.4559427929183519 -1.372504885617239 0.006608720246125715
0.46703440374389116 -1.1376693577153572 0.005835004770408103
0.47579740003723836 -0.8793181702295839 0.004611038718061095
0.48188597913979886 -0.6033183188860687 0.002931790998150465
0.4844498909285969 -0.3139022420975657 0.0011919240177420557
0.4874591469247556 -0.016194786150433974 0.0013822910767379798
0.3669192410712208 -0.020705264009910924 -0.00434150479944026
0.3678816938430091 -0.3131699297443322 -0.0028930180308293953
0.3668285994277814 -0.6022505065881796 -0.0014140284060026745
0.3662638950895366 -0.8787886590233658 -0.0004730974049939324
0.36615914386017406 -1.137466468066215 -6.499272444372279e-05
0.36609302969473895 -1.3726030232515536 -1.236211556136092e-05
0.3660228568065784 -1.5783864778707444 -0.00019592962941388165
0.3659030376336988 -1.749067671048075 -0.0005445728849737245
0.3654673599301542 -1.8792035896997428 -0.0010422836021240858
0.3651123531326834 -1.9638384547560015 -0.0019440111847453968
0.36698867243044875 -1.9961339443685597 -0.0032261425564475434
0.3688720197408228 -1.9639941703462442 -0.0020598294038159104
0.36853860201313404 -1.8795147804286536 -0.0012704808468386097
0.3681406063257542 -1.7495337255003367 -0.0008751820645271297
0.36807728410701146 -1.57900585513986 -0.0006059439224541652
0.3680871566976802 -1.373371521146134 -0.00045518143169433564
0.3681338250843743 -1.138371379224158 -0.00045591935203838265
0.36819752652699284 -0.87979921342018 -0.0006733174371587459
0.3678603542987505 -0.6032952773222661 -0.0012034309504202572
0.3669829736618558 -0.31402667645081034 -0.0019075547004087632
0.36802838563200463 -0.020859946951416398 -0.0021847318671700568
0.4850660279875626 -0.02335767021120461 -0.007374895626592529
0.4843255841035996 -0.31336175103955355 -0.00578937029913659
0.4803014033547437 -0.601665912687035 -0.0052474558849507635
0.473817598784789 -0.87821776385156 -0.005435166014786672
0.4651099113649248 -1.1367950317888915 -0.006061314862773784
0.45400264733438 -1.37175175165383 -0.006832625052079589
0.4404843888885235 -1.5773664517412476 -0.007541651072610378
0.42466081112273 -1.7478286883393883 -0.008070213972606233
0.4062656632070901 -1.8776120814562263 -0.00839251594345219
0.38549639972011496 -1.96281264068437 -0.008889421210034047
0.36702667446116394 -1.998344545077297 -0.010636238042293016
0.34856372943076114 -1.9629721267247924 -0.009048504711969527
0.3278150348921936 -1.8779307810137866 -0.008709009559486064
0.30945482324750456 -1.748305831473993 -0.00853718827211933
0.29368120376446993 -1.5780000971785908 -0.008139139349573095
0.2802283540088316 -1.3725369202465094 -0.007514536480434174
0.2692039433434867 -1.1377190564349373 -0.006736381492867757
0.26060047743714926 -0.8792469681870516 -0.005943914396542687
0.25422660667158037 -0.6027011871338779 -0.005341087264684347
0.2502663980730578 -0.31414888526755613 -0.0051407116984429225
0.24956754496248654 -0.023525820948368463 -0.005745849531651659
0.6035845475331696 -0.02449956331961433 -0.010158220520617147
0.601405668820581 -0.31332238431385345 -0.008616032358379147
0.5944964338485318 -0.6005951222378719 -0.009031778652430433
0.5822446857661882 -0.8766653727046875 -0.010343328524595703
0.5649532798455597 -1.134744295588348 -0.011998897355342705
0.5427835336603462 -1.3691764313435435 -0.013574224397310108
0.5158242197192408 -1.5742531576916545 -0.014781033024397554
0.4841696455635923 -1.7442416604389988 -0.015412716871572214
0.44832294936244205 -1.873230025157968 -0.015449336628361864
0.40692032438106795 -1.9581668699337174 -0.01496801467465501
0.3670648655678796 -1.9996560646803103 -0.016822207810492713
0.32721601324371374 -1.9583308767047043 -0.015171843185855112
0.28583319189054857 -1.8735576754412189 -0.015857397301559807
0.2500192430254249 -1.7447318780609082 -0.0160217964795765
0.21840919359930436 -1.5749031895883903 -0.01557541993258785
0.19150302273681885 -1.3699797967673333 -0.01451024877116765
0.16938840322208865 -1.1356860967590192 -0.012980935164881028
0.15214096304434013 -0.8777056105091432 -0.011193686477906736
0.13990277893967187 -0.6016177913123545 -0.009473176017311572
0.13297658189324849 -0.31406746265101615 -0.008323006549623705
0.13080203604184304 -0.02467329328593976 -0.00898689416980617
0.7231344698377634 -0.024864297035927435 -0.012294873146775773
0.7202070638528297 -0.3129870506066269 -0.011261308738598404
0.7105921249652329 -0.5990164780203964 -0.012787431458205285
0.6924030968863621 -0.8740818629294278 -0.01527075333324516
0.6664760756183045 -1.1312546762036082 -0.01797745549818929
0.6332538288575098 -1.3647916492126602 -0.020350129949539768
0.5928480336109021 -1.5689916070230332 -0.022006407097907604
0.5453936241804949 -1.7380297931928128 -0.022683246112838944
0.4914390679324835 -1.8665503068280365 -0.02220574344167975
0.4328071656844169 -1.9487794775047043 -0.020462593406122633
0.3671017659112053 -2.0 -0.019679263286175277
0.30140287458038967 -1.9489488162967574 -0.020713208951867297
0.2427903232038624 -1.8668884938575148 -0.02270994484584513
0.18886714197831325 -1.738535329223091 -0.02344264246132914
0.14145378473652198 -1.5696606687656156 -0.02301155795647313
0.10109315036288893 -1.3656155068835847 -0.02156327181900269
0.0679071380755028 -1.1322139087480692 -0.019304417262469016
0.04197964018397138 -0.8751281592913301 -0.016521977340484897
0.02371991086739894 -0.6000248728244805 -0.013651273184676224
0.013990099801441258 -0.31370705833421475 -0.011358885678385656
0.011013498707320145 -0.025030481710749834 -0.0114881666913297
0.0 0.0 0.0
0.011877508956892956 -0.30549094518534037 0.002283153907696832
0.024981263916942335 -0.5864622572845498 0.004284459583314664
0.043143543592160764 -0.8571465223833376 0.006181884046395416
0.06807029059844125 -1.1110439355335298 0.0075264957337828715
0.09986530348583206 -1.3426840979430072 0.00820842867897272
0.1384362408821948 -1.5465668172450078 0.00817379062099197
0.1838408475319947 -1.7174082135577864 0.007434513466614515
0.23666313883377965 -1.849767035276274 0.006146579848893268
0.2980281711771358 -1.9367611841126464 0.004760089031144037
0.3669007485125688 -1.968404680401374 0.004095972993760675
0.4357644448773198 -1.9367259339525804 0.0047613670010145
0.49710148263072335 -1.8496856983483483 0.006154445109667098
0.5498723826892931 -1.7172595831871371 0.007460504393453108
0.595194219957708 -1.5463208095087413 0.008237072182052392
0.6336374605430912 -1.34230604552444 0.008336235658283772
0.6652392599486193 -1.1105036238985864 0.007753743329849059
0.6898709151592387 -0.8564352648310345 0.006545221202079555
0.70759354272955 -0.5856082012646934 0.004874442423363519
0.7198040878003759 -0.3044717408817828 0.003281380421777862
0.7291161382491442 0.0 0.0033480280182399498
0.12702855558670928 -0.007881646244970886 8.254998524327595e-05
0.13227272951448776 -0.3054428436122933 0.0011716790866214848
0.1392034565923652 -0.5885680081219323 0.0027035066421002784
0.15162459228279293 -0.8598199597567396 0.004084901631022606
0.16837852193410502 -1.1146780327162207 0.005080795307268407
0.18971154039095758 -1.3472491466109169 0.005587691783513428
0.215559054505286 -1.5521108416050058 0.005597931701185493
0.24595434142803055 -1.724002924948621 0.0051473235574864854
0.2811792409433146 -1.857592243531347 0.004351486299555867
0.32175105155510114 -1.9460237395812048 0.0034788376374943635
0.3668957028878642 -1.9786011812249509 0.0030386748378943918
0.41202935593445655 -1.9459854544452502 0.003453298643242296
0.45256693049417274 -1.8575040459321808 0.004304221743856731
0.48773055127193593 -1.7238418757492977 0.0050870561640102615
0.5180307760772447 -1.5518438755992872 0.005540130531425161
0.5437390839335515 -1.3468367606839295 0.0055567664369467525