# vtk DataFile Version 3.0
Some data
ASCII
DATASET UNSTRUCTURED_GRID
POINTS 1029 float
0.0 0.0 0.0
0.8 0.0 0.0
1.6 0.0 0.0
2.4000000000000004 0.0 0.0
3.2 0.0 0.0
4.0 0.0 0.0
4.800000000000001 0.0 0.0
5.6000000000000005 0.0 0.0
6.4 0.0 0.0
7.2 0.0 0.0
8.0 0.0 0.0
8.8 0.0 0.0
9.600000000000001 0.0 0.0
10.4 0.0 0.0
11.200000000000001 0.0 0.0
12.0 0.0 0.0
12.8 0.0 0.0
13.600000000000001 0.0 0.0
14.4 0.0 0.0
15.200000000000001 0.0 0.0
16.0 0.0 0.0
0.0 0.3333333333333333 0.0
0.8 0.3333333333333333 0.0
1.6 0.3333333333333333 0.0
2.4000000000000004 0.3333333333333333 0.0
3.2 0.3333333333333333 0.0
4.0 0.3333333333333333 0.0
4.800000000000001 0.3333333333333333 0.0
5.6000000000000005 0.3333333333333333 0.0
6.4 0.3333333333333333 0.0
7.2 0.3333333333333333 0.0
8.0 0.3333333333333333 0.0
8.8 0.3333333333333333 0.0
9.600000000000001 0.3333333333333333 0.0
10.4 0.3333333333333333 0.0
11.200000000000001 0.3333333333333333 0.0
12.0 0.3333333333333333 0.0
12.8 0.3333333333333333 0.0
13.600000000000001 0.3333333333333333 0.0
14.4 0.3333333333333333 0.0
15.200000000000001 0.3333333333333333 0.0
16.0 0.3333333333333333 0.0
0.0 0.6666666666666666 0.0
0.8 0.6666666666666666 0.0
1.6 0.6666666666666666 0.0
2.4000000000000004 0.6666666666666666 0.0
3.2 0.6666666666666666 0.0
4.0 0.6666666666666666 0.0
4.800000000000001 0.6666666666666666 0.0
5.6000000000000005 0.6666666666666666 0.0
6.4 0.6666666666666666 0.0
7.2 0.6666666666666666 0.0
8.0 0.6666666666666666 0.0
8.8 0.6666666666666666 0.0
9.600000000000001 0.6666666666666666 0.0
10.4 0.6666666666666666 0.0
11.200000000000001 0.6666666666666666 0.0
12.0 0.6666666666666666 0.0
12.8 0.6666666666666666 0.0
13.600000000000001 0.6666666666666666 0.0
14.4 0.6666666666666666 0.0
15.200000000000001 0.6666666666666666 0.0
16.0 0.6666666666666666 0.0
0.0 1.0 0.0
0.8 1.0 0.0
1.6 1.0 0.0
2.4000000000000004 1.0 0.0
3.2 1.0 0.0
4.0 1.0 0.0
4.800000000000001 1.0 0.0
5.6000000000000005 1.0 0.0
6.4 1.0 0.0
7.2 1.0 0.0
8.0 1.0 0.0
8.8 1.0 0.0
9.600000000000001 1.0 0.0
10.4 1.0 0.0
11.200000000000001 1.0 0.0
12.0 1.0 0.0
12.8 1.0 0.0
13.600000000000001 1.0 0.0
14.4 1.0 0.0
15.200000000000001 1.0 0.0
16.0 1.0 0.0
0.0 1.3333333333333333 0.0
0.8 1.3333333333333333 0.0
1.6 1.3333333333333333 0.0
2.4000000000000004 1.3333333333333333 0.0
3.2 1.3333333333333333 0.0
4.0 1.3333333333333333 0.0
4.800000000000001 1.3333333333333333 0.0
5.6000000000000005 1.3333333333333333 0.0
6.4 1.3333333333333333 0.0
7.2 1.3333333333333333 0.0
8.0 1.3333333333333333 0.0
8.8 1.3333333333333333 0.0
9.600000000000001 1.3333333333333333 0.0
10.4 1.3333333333333333 0.0
11.200000000000001 1.3333333333333333 0.0
12.0 1.3333333333333333 0.0
12.8 1.3333333333333333 0.0
13.600000000000001 1.3333333333333333 0.0
14.4 1.3333333333333333 0.0
15.200000000000001 1.3333333333333333 0.0
16.0 1.3333333333333333 0.0
0.0 1.6666666666666665 0.0
0.8 1.6666666666666665 0.0
1.6 1.6666666666666665 0.0
2.4000000000000004 1.6666666666666665 0.0
3.2 1.6666666666666665 0.0
4.0 1.6666666666666665 0.0
4.800000000000001 1.6666666666666665 0.0
5.6000000000000005 1.6666666666666665 0.0
6.4 1.6666666666666665 0.0
7.2 1.6666666666666665 0.0
8.0 1.6666666666666665 0.0
8.8 1.6666666666666665 0.0
9.600000000000001 1.6666666666666665 0.0
10.4 1.6666666666666665 0.0
11.200000000000001 1.6666666666666665 0.0
12.0 1.6666666666666665 0.0
12.8 1.6666666666666665 0.0
13.600000000000001 1.6666666666666665 0.0
14.4 1.6666666666666665 0.0
15.200000000000001 1.6666666666666665 0.0
16.0 1.6666666666666665 0.0
0.0 2.0 0.0
0.8 2.0 0.0
1.6 2.0 0.0
2.4000000000000004 2.0 0.0
3.2 2.0 0.0
4.0 2.0 0.0
4.800000000000001 2.0 0.0
5.6000000000000005 2.0 0.0
6.4 2.0 0.0
7.2 2.0 0.0
8.0 2.0 0.0
8.8 2.0 0.0
9.600000000000001 2.0 0.0
10.4 2.0 0.0
11.200000000000001 2.0 0.0
12.0 2.0 0.0
12.8 2.0 0.0
13.600000000000001 2.0 0.0
14.4 2.0 0.0
15.200000000000001 2.0 0.0
16.0 2.0 0.0
0.0 0.0 1.6666666666666667
0.8 0.0 1.6666666666666667
1.6 0.0 1.6666666666666667
2.4000000000000004 0.0 1.6666666666666667
3.2 0.0 1.6666666666666667
4.0 0.0 1.6666666666666667
4.800000000000001 0.0 1.6666666666666667
5.6000000000000005 0.0 1.6666666666666667
6.4 0.0 1.6666666666666667
7.2 0.0 1.6666666666666667
8.0 0.0 1.6666666666666667
8.8 0.0 1.6666666666666667
9.600000000000001 0.0 1.6666666666666667
10.4 0.0 1.6666666666666667
11.200000000000001 0.0 1.6666666666666667
12.0 0.0 1.6666666666666667
12.8 0.0 1.6666666666666667
13.600000000000001 0.0 1.6666666666666667
14.4 0.0 1.6666666666666667
15.200000000000001 0.0 1.6666666666666667
16.0 0.0 1.6666666666666667
0.0 0.3333333333333333 1.6666666666666667
0.8 0.3333333333333333 1.6666666666666667
1.6 0.3333333333333333 1.6666666666666667
2.4000000000000004 0.3333333333333333 1.6666666666666667
3.2 0.3333333333333333 1.6666666666666667
4.0 0.3333333333333333 1.6666666666666667
4.800000000000001 0.3333333333333333 1.6666666666666667
5.6000000000000005 0.3333333333333333 1.6666666666666667
6.4 0.3333333333333333 1.6666666666666667
7.2 0.3333333333333333 1.6666666666666667
8.0 0.3333333333333333 1.6666666666666667
8.8 0.3333333333333333 1.6666666666666667
9.600000000000001 0.3333333333333333 1.6666666666666667
10.4 0.3333333333333333 1.6666666666666667
11.200000000000001 0.3333333333333333 1.6666666666666667
12.0 0.3333333333333333 1.6666666666666667
12.8 0.3333333333333333 1.6666666666666667
13.600000000000001 0.3333333333333333 1.6666666666666667
14.4 0.3333333333333333 1.6666666666666667
15.200000000000001 0.3333333333333333 1.6666666666666667
16.0 0.3333333333333333 1.6666666666666667
0.0 0.6666666666666666 1.6666666666666667
0.8 0.6666666666666666 1.6666666666666667
1.6 0.6666666666666666 1.6666666666666667
2.4000000000000004 0.6666666666666666 1.6666666666666667
3.2 0.6666666666666666 1.6666666666666667
4.0 0.6666666666666666 1.6666666666666667
4.800000000000001 0.6666666666666666 1.6666666666666667
5.6000000000000005 0.6666666666666666 1.6666666666666667
6.4 0.6666666666666666 1.6666666666666667
7.2 0.6666666666666666 1.6666666666666667
8.0 0.6666666666666666 1.6666666666666667
8.8 0.6666666666666666 1.6666666666666667
9.600000000000001 0.6666666666666666 1.6666666666666667
10.4 0.6666666666666666 1.6666666666666667
11.200000000000001 0.6666666666666666 1.6666666666666667
12.0 0.6666666666666666 1.6666666666666667
12.8 0.6666666666666666 1.6666666666666667
13.600000000000001 0.6666666666666666 1.6666666666666667
14.4 0.6666666666666666 1.6666666666666667
15.200000000000001 0.6666666666666666 1.6666666666666667
16.0 0.6666666666666666 1.6666666666666667
0.0 1.0 1.6666666666666667
0.8 1.0 1.6666666666666667
1.6 1.0 1.6666666666666667
2.4000000000000004 1.0 1.6666666666666667
3.2 1.0 1.6666666666666667
4.0 1.0 1.6666666666666667
4.800000000000001 1.0 1.6666666666666667
5.6000000000000005 1.0 1.6666666666666667
6.4 1.0 1.6666666666666667
7.2 1.0 1.6666666666666667
8.0 1.0 1.6666666666666667
8.8 1.0 1.6666666666666667
9.600000000000001 1.0 1.6666666666666667
10.4 1.0 1.6666666666666667
11.200000000000001 1.0 1.6666666666666667
12.0 1.0 1.6666666666666667
12.8 1.0 1.6666666666666667
13.600000000000001 1.0 1.6666666666666667
14.4 1.0 1.6666666666666667
15.200000000000001 1.0 1.6666666666666667
16.0 1.0 1.6666666666666667
0.0 1.3333333333333333 1.6666666666666667
0.8 1.3333333333333333 1.6666666666666667
1.6 1.3333333333333333 1.6666666666666667
2.4000000000000004 1.3333333333333333 1.6666666666666667
3.2 1.3333333333333333 1.6666666666666667
4.0 1.3333333333333333 1.6666666666666667
4.800000000000001 1.3333333333333333 1.6666666666666667
5.6000000000000005 1.3333333333333333 1.6666666666666667
6.4 1.3333333333333333 1.6666666666666667
7.2 1.3333333333333333 1.6666666666666667
8.0 1.3333333333333333 1.6666666666666667
8.8 1.3333333333333333 1.6666666666666667
9.600000000000001 1.3333333333333333 1.6666666666666667
10.4 1.3333333333333333 1.6666666666666667
11.200000000000001 1.3333333333333333 1.6666666666666667
12.0 1.3333333333333333 1.6666666666666667
12.8 1.3333333333333333 1.6666666666666667
13.600000000000001 1.3333333333333333 1.6666666666666667
14.4 1.3333333333333333 1.6666666666666667
15.200000000000001 1.3333333333333333 1.6666666666666667
16.0 1.3333333333333333 1.6666666666666667
0.0 1.6666666666666665 1.6666666666666667
0.8 1.6666666666666665 1.6666666666666667
1.6 1.6666666666666665 1.6666666666666667
2.4000000000000004 1.6666666666666665 1.6666666666666667
3.2 1.6666666666666665 1.6666666666666667
4.0 1.6666666666666665 1.6666666666666667
4.800000000000001 1.6666666666666665 1.6666666666666667
5.6000000000000005 1.6666666666666665 1.6666666666666667
6.4 1.6666666666666665 1.6666666666666667
7.2 1.6666666666666665 1.6666666666666667
8.0 1.6666666666666665 1.6666666666666667
8.8 1.6666666666666665 1.6666666666666667
9.600000000000001 1.6666666666666665 1.6666666666666667
10.4 1.6666666666666665 1.6666666666666667
11.200000000000001 1.6666666666666665 1.6666666666666667
12.0 1.6666666666666665 1.6666666666666667
12.8 1.6666666666666665 1.6666666666666667
13.600000000000001 1.6666666666666665 1.6666666666666667
14.4 1.6666666666666665 1.6666666666666667
15.200000000000001 1.6666666666666665 1.6666666666666667
16.0 1.6666666666666665 1.6666666666666667
0.0 2.0 1.6666666666666667
0.8 2.0 1.6666666666666667
1.6 2.0 1.6666666666666667
2.4000000000000004 2.0 1.6666666666666667
3.2 2.0 1.6666666666666667
4.0 2.0 1.6666666666666667
4.800000000000001 2.0 1.6666666666666667
5.6000000000000005 2.0 1.6666666666666667
6.4 2.0 1.6666666666666667
7.2 2.0 1.6666666666666667
8.0 2.0 1.6666666666666667
8.8 2.0 1.6666666666666667
9.600000000000001 2.0 1.6666666666666667
10.4 2.0 1.6666666666666667
11.200000000000001 2.0 1.6666666666666667
12.0 2.0 1.6666666666666667
12.8 2.0 1.6666666666666667
13.600000000000001 2.0 1.6666666666666667
14.4 2.0 1.6666666666666667
15.200000000000001 2.0 1.6666666666666667
16.0 2.0 1.6666666666666667
0.0 0.0 3.3333333333333335
0.8 0.0 3.3333333333333335
1.6 0.0 3.3333333333333335
2.4000000000000004 0.0 3.3333333333333335
[...]
POINT_DATA 1029
VECTORS Disp float
0.0 0.0 0.0
0.023780802808515904 -0.8623273649622076 0.020640835409664143
0.057265785600847455 -1.6249695730373614 0.04444404239254171
0.10357805706260306 -2.3595829352211766 0.06345212387192846
0.16948330118167365 -3.046250807112374 0.08067616298831931
0.2559058572121092 -3.668783652771522 0.09491691829916113
0.3624890058501312 -4.21007544602131 0.10558202502118468
0.4885880005385987 -4.653583956461532 0.11191383379919682
0.6324795625850888 -4.983183185201067 0.11338201685051555
0.7898827662309041 -5.185105121780632 0.11085418443669892
0.9537013911952913 -5.25238826927495 0.10856638598964248
1.1175782368627936 -5.186090322669414 0.11094533943907806
1.275167461156781 -4.985176565108644 0.11359630458602117
1.4194084508386737 -4.6566274769703275 0.11232198301935059
1.5460848364380353 -4.214219382734236 0.10630579824039979
1.6535755163349024 -3.674060611929043 0.09615171075515831
1.741379092175715 -3.052630167956738 0.08269891426538295
1.8093424772583167 -2.3668921821670685 0.06674032248852152
1.858652411619419 -1.632871516892002 0.049296079900986126
1.8973080409281073 -0.8701860789174194 0.029306883458039595
1.9334989586728333 0.0 -0.00016732788112444735
0.3384419349288352 -0.03682368084300204 -0.01083745702433251
0.35304920789987987 -0.8584994707582945 0.010812900144465568
0.3648253509153857 -1.6301614460435694 0.028154635829510374
0.39517323889926814 -2.3656820012566437 0.042852189841083424
0.4379875403690634 -3.055023573227047 0.055153379966579465
0.49451692402447206 -3.679901319907459 0.06527501712545936
0.564437786022659 -4.2235607705686915 0.0727755905060973
0.6473064075476359 -4.66934078502625 0.0773093574520867
0.7419922639160959 -5.000912571628439 0.07863852599664843
0.8457403135793934 -5.203981811719939 0.07730800590905054
0.9538788568241358 -5.271330120409979 0.07589279463766807
1.0620789652847795 -5.204983223704019 0.0772766316992254
1.1660222387016488 -5.002941402515935 0.07860297091771795
1.2610694274119791 -4.672445385027747 0.07733125580942722
1.3445226462595137 -4.227801584009901 0.07296652454588574
1.4153375161399704 -3.6853264407781525 0.06581639218281629
1.4731920586214289 -3.061620184981572 0.05633951117301052
1.5179141659849107 -2.373303327024848 0.04507569305474289
1.5510252874819275 -1.638511281988386 0.0321858738727138
1.5667415918882648 -0.8669804345027305 0.016706787233539525
1.5834608558206054 -0.03886028755029025 -0.004370713756727241
0.6579500412311626 -0.06393537416720377 -0.01771036902520609
0.6654821606851321 -0.8572148089097362 -0.0009584048300809748
0.6667963941679825 -1.6313387109073962 0.011422162814369557
0.6785717610818444 -2.3693664868944806 0.020548724873349404
0.6987964468369211 -3.060055313793426 0.027531811804501358
0.7260075187488105 -3.6864175272287363 0.03286163579399019
0.7601680839263582 -4.231486422479812 0.036570950630976914
0.8011083609926151 -4.6786820688281905 0.038584046570814434
0.8485267569783247 -5.011474940825925 0.03886245318184358
0.9007880758187331 -5.214789647250089 0.03750199360832113
0.9540195684278538 -5.280992293321685 0.03596823866490621
1.0073138082958755 -5.215808581789166 0.037348296112786124
1.0597728840626672 -5.013541495691733 0.03857701852428382
1.1075528049499348 -4.681849986624036 0.03821902197333844
1.1490668781180866 -4.235824525938571 0.03622530528629941
1.184083459102265 -3.6919858986690257 0.03270862700439545
1.212524683685439 -3.0668572049408658 0.027852932351399986
1.2344632250013214 -2.3772623589919477 0.02178967885056663
1.2485291476848324 -1.6400520243913244 0.014208153273226295
1.2517160232241265 -0.8653966613636228 0.0037387499957969063
1.2601568398155116 -0.0670725868878236 -0.011129964114646047
0.9680669982345589 -0.08131051928289831 -0.02384861213962848
0.9700910997307046 -0.8574326164378187 -0.012407123138016275
0.9634507562379584 -1.6303603295290656 -0.0054855798419628935
0.9584983277713076 -2.3700944733512315 -0.002261283002635144
0.9558712243082946 -3.061567404070727 -0.0009136258474688875
0.954102498426541 -3.6884453675108406 -0.0006092037392513126
0.9529049048186857 -4.234041759434551 -0.0009743003594827597
0.9524614210047138 -4.6818531795955165 -0.0018075447133200076
0.9534551567594726 -5.01524355646569 -0.0029218916672685176
0.9554675382056008 -5.217672652830345 -0.004536934456909073
0.9541450854608327 -5.280398165546148 -0.006486717851219698
0.952885645914717 -5.218709894651285 -0.004813858449801597
0.9550954629993401 -5.017349089171504 -0.0034593219774285006
0.95644577272982 -4.685085331726514 -0.0025636361523024955
0.9565573556012966 -4.238475923574894 -0.0018627447327522638
0.9561646302920227 -3.6941514326680673 -0.0014686700302004164
0.9555084634767231 -3.0685577789725382 -0.0014633395867743896
0.9543572085799154 -2.3782409314074395 -0.002046630134689175
0.9510247597240733 -1.639179196479917 -0.0038916549410177572
0.9453843915049064 -0.8652885716776091 -0.008890819240624927
0.947909783687221 -0.08526229719085537 -0.018301181277027612
1.2756433278333115 -0.09061160069134244 -0.030156330035997297
1.272803285124114 -0.857780352088646 -0.02327870745690876
1.258802932198651 -1.627965891006927 -0.02211504782366515
1.2383735721269844 -2.3680673998612316 -0.024942569099469826
1.213076801875255 -3.0595035400755344 -0.029308223346550356
1.18222114027027 -3.6860296858247454 -0.03404588571179095
1.1457166292337564 -4.231256915808642 -0.03850404635017932
1.1037852668933388 -4.678844218096856 -0.04221491737356734
1.0580373514009773 -5.012395435172862 -0.04466279513778129
1.0104174919762619 -5.21311585322138 -0.045735782017052334
0.9542739871764572 -5.268088038711275 -0.047485285894763314
0.898194050868475 -5.2141720293939855 -0.04613797042054655
0.8507721297206912 -5.0145409215020615 -0.045456766746723824
0.8053771321367365 -4.682141144555403 -0.04336995151827403
0.7639837545393343 -4.235785732747039 -0.03994796282004769
0.7282330730612888 -3.6918657571250564 -0.035630127511557794
0.6983675040330322 -3.066667621030715 -0.03075616403556446
0.6742550228863079 -2.376402471673197 -0.025790032115503913
0.6549274506570752 -1.6368038523807469 -0.02170451547573773
0.6414987654979349 -0.8654291005426177 -0.020974205284672014
0.6389324297680733 -0.09508081784287169 -0.0258214035862648
1.5852770389196367 -0.09409170804906367 -0.036950322283566435
1.5786014877338983 -0.8574210683232942 -0.03353674874819974
1.5575236750001016 -1.6243714703124155 -0.03808907440656359
1.5221534455226529 -2.363483691290224 -0.04687579462546868
1.474105638544264 -3.0538316415784554 -0.05678146099864595
1.4138408013920183 -3.6791126855629095 -0.06634169674605277
1.3415590114764615 -4.223147282404784 -0.07466681861418854
1.2578591128091254 -4.6694703200032714 -0.08097844099419928
1.1633072788863288 -5.002727033430619 -0.08451317627697076
1.0652864696717055 -5.202409277940269 -0.08331026834747171
0.9544251518258846 -5.241829827002963 -0.08165968006858858
0.8436295732344903 -5.203485245348637 -0.08384083167885688
0.7458120706022957 -5.004913887665908 -0.08557049695080156
0.6516177483842527 -4.672833293351677 -0.08254413087939141
0.5684505789955142 -4.227769931509679 -0.07668457593381023
0.4968880907067271 -3.68507224509427 -0.06867818654446452
0.437500288622588 -3.0611453096332806 -0.059167611869663524
0.3903577953058946 -2.3719550411997274 -0.04883230547210241
0.3556562164176312 -1.6332197703531817 -0.03889142688999107
0.3348145600792369 -0.8649674714052062 -0.03243484233400375
0.3282081034534697 -0.09880984225599122 -0.03378784829214184
1.8995165019164881 -0.09480141410229675 -0.04399729897221999
1.8919521146351816 -0.8562151027708826 -0.043201393236570185
1.8651740659868534 -1.6196459638104492 -0.05286229623345174
1.814309876885123 -2.3562789027090814 -0.06708055272769319
1.7429429409918153 -3.0444400153470705 -0.08196853161977438
1.6526469577031662 -3.667567360918672 -0.09578360317973203
1.543734354483898 -4.2094329419876955 -0.10738170906420383
1.416887009885102 -4.653918525686348 -0.11568183336579596
1.2732930356209788 -4.984428608287376 -0.11966170835712746
1.1135013775509892 -5.187556931946145 -0.11542127463594222
0.9546210720455257 -5.2 -0.09808568477866816
0.7958119297563837 -5.188654341969437 -0.1160842196125811
0.6362387981938392 -4.986659802176143 -0.12099104966238175
0.49302353327963444 -4.657350955299019 -0.11767283315150633
0.36672776810984 -4.2141514438925824 -0.10999589802853779
0.25853286931458386 -3.67364589792933 -0.09890531369299746
0.1690449928455602 -3.0518783883624794 -0.08533762220762929
0.09834904442973919 -2.3648338709230883 -0.0701965764445114
0.04767975951956138 -1.6284766554033316 -0.05491119624312548
0.02062428835474463 -0.8636966264241996 -0.0432636783103959
0.012863651089643848 -0.09957226800561948 -0.041869575687021036
0.0 0.0 0.0
0.022244641284944546 -0.8150304449991661 0.013738862237581998
0.05639782812295132 -1.5587229199815238 0.026240545624924394
0.1047438693199475 -2.2730762548632706 0.03785961582634324
0.17147678144223025 -2.941288890653274 0.04682641857153799
0.2572715429705294 -3.548506930497001 0.053120633776921646
0.3618170067373552 -4.079402300836397 0.05631048413408471
0.48461461648465826 -4.5192525824725145 0.05610095450464705
0.6251782650634458 -4.853653289745109 0.05263031594677596
0.7829324926983742 -5.067467627223623 0.047378708880207086
0.953894092597588 -5.143141984286412 0.04434095038700856
1.124875550572234 -5.0678541559820225 0.04740992709620718
1.2826921224895238 -4.85442515496191 0.05271528283540468
1.4233699688170474 -4.52040698399245 0.056289407088920385
1.5463532257195394 -4.080932917754901 0.05668863634746673
1.6511940886255303 -3.5503967662817355 0.05381900614972604
1.7374624321694865 -2.9434928083828327 0.04804279589563763
1.8049805925106464 -2.275484239004573 0.039803237848733325
1.8546031205450109 -1.5611188718081301 0.029481200991297044
1.8912778573561302 -0.8173227512065471 0.017477194777493057
1.91951563078821 0.0 0.015340899650015175
0.32886573726506757 -0.02369682804877281 0.0020250088705004708
0.34218171261675717 -0.8138443631954914 0.006299070161446942
0.3584431482114235 -1.5639849725698494 0.01638235268224135
0.39091513992957216 -2.279662390298034 0.024650955573206703
0.4353409568509697 -2.9503405069881414 0.03106163018537145
0.4924806685381106 -3.5598602930373224 0.03534770590592848
0.5621139258198631 -4.093089343431071 0.03744584446914621
0.6438717807206037 -4.5352549360121595 0.037271510067555295
0.7372408651549398 -4.872028026508167 0.03502083999179525
0.8415123824083611 -5.088271742667932 0.031540353526136766
0.9539804437770407 -5.165459822934013 0.02931543311550469
1.0664680239719067 -5.088662489773475 0.03145985454809501
1.1708006269054352 -4.872808611084623 0.03487739972072947
1.2642806972020484 -4.536423279161498 0.03710592392508305
1.3462163909163314 -4.09464068925729 0.037332503632063516
1.4161256105061726 -3.561781071767912 0.03541182283608029
1.473698910318787 -2.9525923637465765 0.03148797461065583
1.5188136199855655 -2.282147113591763 0.025745121723743634
1.552467440566882 -1.5665319652817489 0.018420868233246488
1.5708014069585146 -0.8164612169189056 0.010369967303537873
1.5853047718014017 -0.024105374335091023 0.011610236676067386
0.644684456868142 -0.0417240342816428 -0.0036457897487244617
0.6520669069288322 -0.8136849697218298 -0.00028441382607788363
0.6577354170487903 -1.5659373973290205 0.006339364851499482
0.6726109629899892 -2.283671078728727 0.011727578308040715
0.6948197915597771 -2.9556375676766833 0.01547031714175955
0.7232886646480922 -3.5665552699002894 0.017729584621771967
0.7580160482365602 -4.1011415433770475 0.018599306761914465
0.7986843387389087 -4.544604633651985 0.01815931233623697
0.8447281866551454 -4.882693104774254 0.016511638617191852
0.8962738122420404 -5.100867229182793 0.013730599771755348
0.9540737664046001 -5.180393851021921 0.011275256420392298
1.0118926814536309 -5.101264118020248 0.013539891351196194
1.0634971822250217 -4.883486181704778 0.016143426163624717
1.1096462316050277 -4.545792266459019 0.017646683321831714
1.1504784024668226 -4.102719811820583 0.01800910902111656
1.1854512615877282 -3.5685127026053753 0.017182672639486002
1.2142894497341477 -2.957940330060504 0.015171012402576687
1.2370732400968676 -2.2862272425974144 0.011988700666433826
1.2529035457635356 -1.568627629104151 0.007622656594622442
1.2595697164144113 -0.8161458294538971 0.0030990024455161743
1.2673937820044336 -0.04210644399117361 0.0035939567988717
0.9539900267852265 -0.05383368642579585 -0.011287912478549943
0.956492403991875 -0.8142418173353402 -0.007521846880181863
0.9537543585122797 -1.5658513171294033 -0.0036764738556535528
0.9522861272328442 -2.2848505134609276 -0.0012300532530571669
0.9520137740364939 -2.9574128169723553 -0.00016898108364991646
0.9518418772063645 -3.5687678604542485 -3.214150058264158e-05
0.9516594276971432 -4.103804842464135 -0.0005094170366281696
0.9513478978476608 -4.5475759447251285 -0.0014158895011111869
0.9502151358184351 -4.885929333219457 -0.002709937365730569
0.94929211814501 -5.105979982365698 -0.005054429080580461
0.9541705483191836 -5.189948255358395 -0.008387970647049136
0.9590672513261387 -5.106384842900552 -0.005355556450236048
0.9582003652341538 -4.886738429114952 -0.003303250202132288
0.9571655764469738 -4.548787686301391 -0.002275473368159785
0.9570009386782385 -4.105415223364228 -0.0015754541988106676
0.957026607413976 -3.5707659549805166 -0.0011834717228762586
0.9571479452193854 -2.959765585983403 -0.001185390315810431
0.95731356897019 -2.2874779548929594 -0.0017506253371607405
0.9564369211767558 -1.5685677210382707 -0.0031289204716797065
0.9541557315208271 -0.8164693587723301 -0.004959642221689562
0.9568738026432185 -0.054235862073741314 -0.005680302855305021
1.2611716727677313 -0.060729942549161184 -0.019174728629146074
1.2592465186694297 -0.814740552702919 -0.015052362777782047
1.2487836487223982 -1.5643313729864257 -0.013643385300920904
1.2319257568405066 -2.283366186014229 -0.014131431638520014
1.209285769548856 -2.955667082651312 -0.015759418643316404
1.180406883069433 -3.5665545543001738 -0.017764825135544338
1.1452594111101972 -4.1011527745274385 -0.01960829278895618
1.104118108919129 -4.544354589682549 -0.02098255632897419
1.0562907243384736 -4.881791411786315 -0.021820541453205486
1.0022906392723465 -5.103312865779464 -0.023112495146351737
0.9542693535990733 -5.195695817201073 -0.027654218910261034
0.9062656965200077 -5.103727529484775 -0.023526112251456892
0.8523190907197458 -4.882620030636289 -0.022643424855039857
0.8045825404435457 -4.545595161832904 -0.022196689507929173
0.7635711297876442 -4.102800252664911 -0.021161762309353602
0.72859372042297 -3.5685959926414927 -0.019537794849631005
0.6999302526930524 -2.9580695467314215 -0.01751459188199385
0.6775612413365582 -2.2860421172868266 -0.015454177431581888
0.6609891773460648 -1.567023086548456 -0.013886826888785328
0.6506926349898983 -0.8167871016958729 -0.013365850416592422
0.6488756169024137 -0.061167134465821886 -0.014939208782973319
1.5693198235863268 -0.06369886463102838 -0.026411373353610094
1.5636547389335957 -0.8146381992160987 -0.022401684131812986
1.545690728006265 -1.5615473178185975 -0.02348262449636998
1.5138361829921527 -2.279329969032359 -0.026892654164026992
1.4688785275985148 -2.950335168529902 -0.031197133124002095
1.4112371875169443 -3.5598587214934136 -0.03529298343315828
1.3411429712700542 -4.093058209998513 -0.03843068586361998
1.2588410784653687 -4.5350283171415455 -0.04007306386631157
1.1656396683423782 -4.870398065410843 -0.04016827523399503
1.0579928433908368 -5.091233861827789 -0.038916838154382724
0.9543686504765603 -5.1991057681688595 -0.04373774030759599
0.850761634433725 -5.091660279432539 -0.03944679228357659
0.7431662989155083 -4.871249956147634 -0.04122923298445702
0.6500500318661651 -4.536302882958866 -0.04165667084734933
0.5678639033582223 -4.094748292930407 -0.040496091825223644
0.4979078591157322 -3.561947471595633 -0.03772664680556842
0.4404098483773989 -2.952783851574025 -0.03375043142925713
0.3955665039152131 -2.282034587324256 -0.02910358484315399
0.363747225243051 -1.5642062574125022 -0.024630257645634302
0.345739112922338 -0.8165754028928658 -0.021639817029676375
0.3400852937086787 -0.064150562543511 -0.023365924842189113
1.880149621578294 -0.0646471722934418 -0.03196667018162247
1.872538366017454 -0.8137663315773112 -0.02927940272038221
1.847539524909703 -1.5574428428531577 -0.03324732179138636
1.8002480519046336 -2.272612843616671 -0.03970395866651853
1.732837796607655 -2.9412621581295797 -0.04674138429540794
1.646459955029572 -3.5484582879531246 -0.05291033786896658
1.5414048873883657 -4.07937817826011 -0.057216658454766464
1.418023422869299 -4.5188774623014645 -0.05897643989363109
1.2777415766244864 -4.8530307977530125 -0.05773493294865062
1.125298630779524 -5.0668266415123595 -0.05320274285622018
0.9544645913692368 -5.2 -0.051166084544378994
0.7836474739091663 -5.067266922371867 -0.05385434327522649
0.6312548403301654 -4.853910084029991 -0.05904585659962633
0.4910545691436989 -4.520191855980543 -0.060950870399936935
0.36777984031500555 -4.081117738791185 -0.059830050687359596
0.262842190943508 -3.550600317897891 -0.05606450672996767
0.17655855899625686 -2.943756162745532 -0.05019148488301392
0.10914706447821607 -2.2753332141579357 -0.04295714108588122
0.06167176825508901 -1.5600646693440208 -0.03549331028080223
0.03637425948357476 -0.8156383516691827 -0.029533102764469073
0.02863509663885612 -0.06507925244801653 -0.02986923339816025
0.0 0.0 0.0
0.030881523287950033 -0.7942764574819615 0.005936200159993054
0.06495128618409643 -1.5248018689399403 0.011139594916578958
0.11217321333968866 -2.2285809581968277 0.01607289852056964
0.17698275555604162 -2.888714232387332 0.019568888907760353
0.2596497890632818 -3.490978654651967 0.021341914565240126
0.359934226293838 -4.021073724837115 0.021251855614474256
0.47798620358330657 -4.465261355250277 0.01932973501307793
0.6153241609679218 -4.8093942917183075 0.01598110760697012
0.7748732450606012 -5.03557907869289 0.012376231480772484
0.9539419461326887 -5.11785216904365 0.010649529783547902
1.1329875566810217 -5.035487428276866 0.012379554202380674
1.2924638548398688 -4.809182815705992 0.01600155728486719
1.42966819499218 -4.464874916286925 0.01939731142268457
1.547504971890057 -4.020434104723126 0.02141638767299913
1.6474573974121107 -3.4899957183640438 0.021674212711151573
1.7296220758665404 -2.887309422136765 0.020159732657170158
1.7936643794141853 -2.226731688561083 0.01701757512491976
1.8397432110970282 -1.522581323288493 0.012673550300206289
1.8714906282812065 -0.7916265262928055 0.008531589096034669
1.8957019594480242 0.0 0.008704872846799213
0.33027424452548504 -0.02049228023693462 0.00021462996162945497
0.34390909673771786 -0.7941513933920377 0.003046365625195528
0.361928987140212 -1.5302768211171394 0.007029117269419021
0.3942239399353399 -2.235531895367682 0.0106207442405956
0.4377841570287676 -2.8981628850623284 0.01321006779881386
0.4932500050165951 -3.5028477811885272 0.014527998637031091
0.5604535417138533 -4.035488188173103 0.014554622422956806
0.6394812877129838 -4.482407604866454 0.013383041249314661
0.7310660264527057 -4.829739833181503 0.011313864378662
0.8365527340433254 -5.059661722911134 0.009044977857268061
0.953928827508486 -5.144363071184948 0.007900554578273045
1.0712763254296165 -5.059562181557794 0.00897857647215438
1.1766740192848828 -4.829510519423932 0.011190976533726507
1.2680994333070676 -4.481988876948539 0.01322634602609366
1.346880017800882 -4.034794076558563 0.014404339381333696
1.4137216182273096 -3.501775577778731 0.0144475927356461
1.4686679842843926 -2.896615184902097 0.01328756863822016
1.511494642264539 -2.233459158004213 0.01098972797047295
1.5426714126036345 -1.5276875534615664 0.007888178631856237
1.558820081157511 -0.7908899433487925 0.005412761857976972
1.5716808695217817 -0.019480034490405546 0.006908396000139929
0.6424156004354022 -0.03532568702990774 -0.0020584182530569337
0.649427765728927 -0.7938144700629692 -0.00011878128660642467