# vtk DataFile Version 3.0
Some data
ASCII
DATASET UNSTRUCTURED_GRID
POINTS 1029 float
0.0 0.0 0.0
0.8 0.0 0.0
1.6 0.0 0.0
2.4000000000000004 0.0 0.0
3.2 0.0 0.0
4.0 0.0 0.0
4.800000000000001 0.0 0.0
5.6000000000000005 0.0 0.0
6.4 0.0 0.0
7.2 0.0 0.0
8.0 0.0 0.0
8.8 0.0 0.0
9.600000000000001 0.0 0.0
10.4 0.0 0.0
11.200000000000001 0.0 0.0
12.0 0.0 0.0
12.8 0.0 0.0
13.600000000000001 0.0 0.0
14.4 0.0 0.0
15.200000000000001 0.0 0.0
16.0 0.0 0.0
0.0 0.3333333333333333 0.0
0.8 0.3333333333333333 0.0
1.6 0.3333333333333333 0.0
2.4000000000000004 0.3333333333333333 0.0
3.2 0.3333333333333333 0.0
4.0 0.3333333333333333 0.0
4.800000000000001 0.3333333333333333 0.0
5.6000000000000005 0.3333333333333333 0.0
6.4 0.3333333333333333 0.0
7.2 0.3333333333333333 0.0
8.0 0.3333333333333333 0.0
8.8 0.3333333333333333 0.0
9.600000000000001 0.3333333333333333 0.0
10.4 0.3333333333333333 0.0
11.200000000000001 0.3333333333333333 0.0
12.0 0.3333333333333333 0.0
12.8 0.3333333333333333 0.0
13.600000000000001 0.3333333333333333 0.0
14.4 0.3333333333333333 0.0
15.200000000000001 0.3333333333333333 0.0
16.0 0.3333333333333333 0.0
0.0 0.6666666666666666 0.0
0.8 0.6666666666666666 0.0
1.6 0.6666666666666666 0.0
2.4000000000000004 0.6666666666666666 0.0
3.2 0.6666666666666666 0.0
4.0 0.6666666666666666 0.0
4.800000000000001 0.6666666666666666 0.0
5.6000000000000005 0.6666666666666666 0.0
6.4 0.6666666666666666 0.0
7.2 0.6666666666666666 0.0
8.0 0.6666666666666666 0.0
8.8 0.6666666666666666 0.0
9.600000000000001 0.6666666666666666 0.0
10.4 0.6666666666666666 0.0
11.200000000000001 0.6666666666666666 0.0
12.0 0.6666666666666666 0.0
12.8 0.6666666666666666 0.0
13.600000000000001 0.6666666666666666 0.0
14.4 0.6666666666666666 0.0
15.200000000000001 0.6666666666666666 0.0
16.0 0.6666666666666666 0.0
0.0 1.0 0.0
0.8 1.0 0.0
1.6 1.0 0.0
2.4000000000000004 1.0 0.0
3.2 1.0 0.0
4.0 1.0 0.0
4.800000000000001 1.0 0.0
5.6000000000000005 1.0 0.0
6.4 1.0 0.0
7.2 1.0 0.0
8.0 1.0 0.0
8.8 1.0 0.0
9.600000000000001 1.0 0.0
10.4 1.0 0.0
11.200000000000001 1.0 0.0
12.0 1.0 0.0
12.8 1.0 0.0
13.600000000000001 1.0 0.0
14.4 1.0 0.0
15.200000000000001 1.0 0.0
16.0 1.0 0.0
0.0 1.3333333333333333 0.0
0.8 1.3333333333333333 0.0
1.6 1.3333333333333333 0.0
2.4000000000000004 1.3333333333333333 0.0
3.2 1.3333333333333333 0.0
4.0 1.3333333333333333 0.0
4.800000000000001 1.3333333333333333 0.0
5.6000000000000005 1.3333333333333333 0.0
6.4 1.3333333333333333 0.0
7.2 1.3333333333333333 0.0
8.0 1.3333333333333333 0.0
8.8 1.3333333333333333 0.0
9.600000000000001 1.3333333333333333 0.0
10.4 1.3333333333333333 0.0
11.200000000000001 1.3333333333333333 0.0
12.0 1.3333333333333333 0.0
12.8 1.3333333333333333 0.0
13.600000000000001 1.3333333333333333 0.0
14.4 1.3333333333333333 0.0
15.200000000000001 1.3333333333333333 0.0
16.0 1.3333333333333333 0.0
0.0 1.6666666666666665 0.0
0.8 1.6666666666666665 0.0
1.6 1.6666666666666665 0.0
2.4000000000000004 1.6666666666666665 0.0
3.2 1.6666666666666665 0.0
4.0 1.6666666666666665 0.0
4.800000000000001 1.6666666666666665 0.0
5.6000000000000005 1.6666666666666665 0.0
6.4 1.6666666666666665 0.0
7.2 1.6666666666666665 0.0
8.0 1.6666666666666665 0.0
8.8 1.6666666666666665 0.0
9.600000000000001 1.6666666666666665 0.0
10.4 1.6666666666666665 0.0
11.200000000000001 1.6666666666666665 0.0
12.0 1.6666666666666665 0.0
12.8 1.6666666666666665 0.0
13.600000000000001 1.6666666666666665 0.0
14.4 1.6666666666666665 0.0
15.200000000000001 1.6666666666666665 0.0
16.0 1.6666666666666665 0.0
0.0 2.0 0.0
0.8 2.0 0.0
1.6 2.0 0.0
2.4000000000000004 2.0 0.0
3.2 2.0 0.0
4.0 2.0 0.0
4.800000000000001 2.0 0.0
5.6000000000000005 2.0 0.0
6.4 2.0 0.0
7.2 2.0 0.0
8.0 2.0 0.0
8.8 2.0 0.0
9.600000000000001 2.0 0.0
10.4 2.0 0.0
11.200000000000001 2.0 0.0
12.0 2.0 0.0
12.8 2.0 0.0
13.600000000000001 2.0 0.0
14.4 2.0 0.0
15.200000000000001 2.0 0.0
16.0 2.0 0.0
0.0 0.0 1.6666666666666667
0.8 0.0 1.6666666666666667
1.6 0.0 1.6666666666666667
2.4000000000000004 0.0 1.6666666666666667
3.2 0.0 1.6666666666666667
4.0 0.0 1.6666666666666667
4.800000000000001 0.0 1.6666666666666667
5.6000000000000005 0.0 1.6666666666666667
6.4 0.0 1.6666666666666667
7.2 0.0 1.6666666666666667
8.0 0.0 1.6666666666666667
8.8 0.0 1.6666666666666667
9.600000000000001 0.0 1.6666666666666667
10.4 0.0 1.6666666666666667
11.200000000000001 0.0 1.6666666666666667
12.0 0.0 1.6666666666666667
12.8 0.0 1.6666666666666667
13.600000000000001 0.0 1.6666666666666667
14.4 0.0 1.6666666666666667
15.200000000000001 0.0 1.6666666666666667
16.0 0.0 1.6666666666666667
0.0 0.3333333333333333 1.6666666666666667
0.8 0.3333333333333333 1.6666666666666667
1.6 0.3333333333333333 1.6666666666666667
2.4000000000000004 0.3333333333333333 1.6666666666666667
3.2 0.3333333333333333 1.6666666666666667
4.0 0.3333333333333333 1.6666666666666667
4.800000000000001 0.3333333333333333 1.6666666666666667
5.6000000000000005 0.3333333333333333 1.6666666666666667
6.4 0.3333333333333333 1.6666666666666667
7.2 0.3333333333333333 1.6666666666666667
8.0 0.3333333333333333 1.6666666666666667
8.8 0.3333333333333333 1.6666666666666667
9.600000000000001 0.3333333333333333 1.6666666666666667
10.4 0.3333333333333333 1.6666666666666667
11.200000000000001 0.3333333333333333 1.6666666666666667
12.0 0.3333333333333333 1.6666666666666667
12.8 0.3333333333333333 1.6666666666666667
13.600000000000001 0.3333333333333333 1.6666666666666667
14.4 0.3333333333333333 1.6666666666666667
15.200000000000001 0.3333333333333333 1.6666666666666667
16.0 0.3333333333333333 1.6666666666666667
0.0 0.6666666666666666 1.6666666666666667
0.8 0.6666666666666666 1.6666666666666667
1.6 0.6666666666666666 1.6666666666666667
2.4000000000000004 0.6666666666666666 1.6666666666666667
3.2 0.6666666666666666 1.6666666666666667
4.0 0.6666666666666666 1.6666666666666667
4.800000000000001 0.6666666666666666 1.6666666666666667
5.6000000000000005 0.6666666666666666 1.6666666666666667
6.4 0.6666666666666666 1.6666666666666667
7.2 0.6666666666666666 1.6666666666666667
8.0 0.6666666666666666 1.6666666666666667
8.8 0.6666666666666666 1.6666666666666667
9.600000000000001 0.6666666666666666 1.6666666666666667
10.4 0.6666666666666666 1.6666666666666667
11.200000000000001 0.6666666666666666 1.6666666666666667
12.0 0.6666666666666666 1.6666666666666667
12.8 0.6666666666666666 1.6666666666666667
13.600000000000001 0.6666666666666666 1.6666666666666667
14.4 0.6666666666666666 1.6666666666666667
15.200000000000001 0.6666666666666666 1.6666666666666667
16.0 0.6666666666666666 1.6666666666666667
0.0 1.0 1.6666666666666667
0.8 1.0 1.6666666666666667
1.6 1.0 1.6666666666666667
2.4000000000000004 1.0 1.6666666666666667
3.2 1.0 1.6666666666666667
4.0 1.0 1.6666666666666667
4.800000000000001 1.0 1.6666666666666667
5.6000000000000005 1.0 1.6666666666666667
6.4 1.0 1.6666666666666667
7.2 1.0 1.6666666666666667
8.0 1.0 1.6666666666666667
8.8 1.0 1.6666666666666667
9.600000000000001 1.0 1.6666666666666667
10.4 1.0 1.6666666666666667
11.200000000000001 1.0 1.6666666666666667
12.0 1.0 1.6666666666666667
12.8 1.0 1.6666666666666667
13.600000000000001 1.0 1.6666666666666667
14.4 1.0 1.6666666666666667
15.200000000000001 1.0 1.6666666666666667
16.0 1.0 1.6666666666666667
0.0 1.3333333333333333 1.6666666666666667
0.8 1.3333333333333333 1.6666666666666667
1.6 1.3333333333333333 1.6666666666666667
2.4000000000000004 1.3333333333333333 1.6666666666666667
3.2 1.3333333333333333 1.6666666666666667
4.0 1.3333333333333333 1.6666666666666667
4.800000000000001 1.3333333333333333 1.6666666666666667
5.6000000000000005 1.3333333333333333 1.6666666666666667
6.4 1.3333333333333333 1.6666666666666667
7.2 1.3333333333333333 1.6666666666666667
8.0 1.3333333333333333 1.6666666666666667
8.8 1.3333333333333333 1.6666666666666667
9.600000000000001 1.3333333333333333 1.6666666666666667
10.4 1.3333333333333333 1.6666666666666667
11.200000000000001 1.3333333333333333 1.6666666666666667
12.0 1.3333333333333333 1.6666666666666667
12.8 1.3333333333333333 1.6666666666666667
13.600000000000001 1.3333333333333333 1.6666666666666667
14.4 1.3333333333333333 1.6666666666666667
15.200000000000001 1.3333333333333333 1.6666666666666667
16.0 1.3333333333333333 1.6666666666666667
0.0 1.6666666666666665 1.6666666666666667
0.8 1.6666666666666665 1.6666666666666667
1.6 1.6666666666666665 1.6666666666666667
2.4000000000000004 1.6666666666666665 1.6666666666666667
3.2 1.6666666666666665 1.6666666666666667
4.0 1.6666666666666665 1.6666666666666667
4.800000000000001 1.6666666666666665 1.6666666666666667
5.6000000000000005 1.6666666666666665 1.6666666666666667
6.4 1.6666666666666665 1.6666666666666667
7.2 1.6666666666666665 1.6666666666666667
8.0 1.6666666666666665 1.6666666666666667
8.8 1.6666666666666665 1.6666666666666667
9.600000000000001 1.6666666666666665 1.6666666666666667
10.4 1.6666666666666665 1.6666666666666667
11.200000000000001 1.6666666666666665 1.6666666666666667
12.0 1.6666666666666665 1.6666666666666667
12.8 1.6666666666666665 1.6666666666666667
13.600000000000001 1.6666666666666665 1.6666666666666667
14.4 1.6666666666666665 1.6666666666666667
15.200000000000001 1.6666666666666665 1.6666666666666667
16.0 1.6666666666666665 1.6666666666666667
0.0 2.0 1.6666666666666667
0.8 2.0 1.6666666666666667
1.6 2.0 1.6666666666666667
2.4000000000000004 2.0 1.6666666666666667
3.2 2.0 1.6666666666666667
4.0 2.0 1.6666666666666667
4.800000000000001 2.0 1.6666666666666667
5.6000000000000005 2.0 1.6666666666666667
6.4 2.0 1.6666666666666667
7.2 2.0 1.6666666666666667
8.0 2.0 1.6666666666666667
8.8 2.0 1.6666666666666667
9.600000000000001 2.0 1.6666666666666667
10.4 2.0 1.6666666666666667
11.200000000000001 2.0 1.6666666666666667
12.0 2.0 1.6666666666666667
12.8 2.0 1.6666666666666667
13.600000000000001 2.0 1.6666666666666667
14.4 2.0 1.6666666666666667
15.200000000000001 2.0 1.6666666666666667
16.0 2.0 1.6666666666666667
0.0 0.0 3.3333333333333335
0.8 0.0 3.3333333333333335
1.6 0.0 3.3333333333333335
2.4000000000000004 0.0 3.3333333333333335
[...]
POINT_DATA 1029
VECTORS Disp float
0.0 0.0 0.0
0.014634340189873512 -0.5306629938228674 0.01270205255980857
0.03524048344669372 -0.9999812757152462 0.027350179933895637
0.06374034280777485 -1.4520510370591246 0.03904746084429643
0.10429741611182217 -1.8746158812998301 0.04964686953130833
0.15748052751516284 -2.257713017090053 0.05841041126105777
0.22307015744624473 -2.5908156590898943 0.06497355385922951
0.30066953879298863 -2.86374397320697 0.06887005156878526
0.3892181923600654 -3.0665742678159376 0.06977354883115416
0.4860817022959736 -3.190833921095665 0.06821795965343072
0.586893163812546 -3.2322389349383096 0.06681008368603009
0.6877404534541101 -3.191440198565609 0.06827405503954331
0.7847184376350287 -3.067800963143547 0.06990541820690549
0.8734821235931013 -2.8656169089045345 0.0691212203197344
0.9514368224234634 -2.5933657739899854 0.06541895276346914
1.0175849331292004 -2.2609603765713757 0.059170283541786856
1.0716179028773616 -1.8785416418192087 0.05089163954810362
1.1134415244666303 -1.4565490351794583 0.04107096768544491
1.1437860994580606 -1.0048440103948777 0.03033604917006713
1.1675741790326204 -0.5354991254875154 0.018035005205204235
1.18984551302936 0.0 -0.00010297100348277622
0.20827195995621256 -0.022660726672611254 -0.006669204322661184
0.217261051015318 -0.5283073666204605 0.006654092396607264
0.2245079082556341 -1.0031762744882984 0.017325929741259925
0.243183531630331 -1.455804308465565 0.026370578363773753
0.2695307940732826 -1.8800145066011698 0.033940541517931994
0.30431810709199386 -2.264554658404471 0.04016924130801793
0.34734632986010633 -2.5991143203498286 0.04478497877303347
0.3983424046447098 -2.873440483092949 0.04757498920134365
0.4566106239483796 -3.077484659463549 0.04839293907493537
0.5204555775873421 -3.202450345673707 0.04757415748257978
0.5870023734302826 -3.2438954587137 0.04670325823866427
0.6535870555599292 -3.203066599202296 0.047554850276566224
0.7175521468933898 -3.078733170778799 0.048371059026421435
0.7760427245612738 -2.8753510061706398 0.04758846511364094
0.8273985515443636 -2.6017240516980857 0.04490247664378065
0.8709769330092443 -2.26789319432467 0.04050239518959839
0.9065797283824315 -1.8840739599883385 0.034670468414353076
0.9341010252214808 -1.4604943550919371 0.02773888803390242
0.9544770999888621 -1.008314635069574 0.019806691614215593
0.9641486719312186 -0.5335264212323242 0.01028109983628742
0.9744374497357267 -0.023914023107852515 -0.002689670003851241
0.4048923330653336 -0.03934484564134747 -0.010898688630891381
0.4095274834985463 -0.5275168054828848 -0.0005897875877294473
0.41033624256491763 -1.0039007451737316 0.007029023270403398
0.41758262220421727 -1.4580716842426924 0.0126453691528615
0.4300285826688798 -1.8831109623343234 0.016942653418195
0.4467738576915822 -2.2685646321406425 0.020222545104043966
0.4677957439546901 -2.6039916446028313 0.02250520038835415
0.49298976061085137 -2.8791889654326126 0.023744028659032246
0.5221703119866733 -3.083984578969696 0.02391535580429282
0.5543311235807709 -3.2091013213845607 0.023078149912908248
0.587088965186403 -3.249841411274785 0.022134300716969074
0.6198854204898211 -3.209728358023927 0.022983566838762556
0.6521679286539996 -3.085256305040825 0.023739703707396302
0.6815709568923146 -2.881138453306818 0.023519398137597725
0.7071180788419391 -2.6066612467311074 0.022292495560973995
0.7286667440629631 -2.2719913222575068 0.02012838584904976
0.7461690361141382 -1.8872967415017468 0.017140266062609166
0.7596696769239064 -1.4629306824563049 0.01340903313903854
0.7683256293445226 -1.0092627842406072 0.008743478937618097
0.770286783522548 -0.5325517916082589 0.002300769228452829
0.7754811321941656 -0.04127543808478228 -0.006849208685643497
0.5957335373751097 -0.05003724263561907 -0.014676069008998286
0.5969791382958154 -0.5276508408847802 -0.007635152700304828
0.5928927730695103 -1.003298664325527 -0.0033757414411857965
0.5898451247823446 -1.4585196759083818 -0.0013915587708203307
0.588228445728181 -1.884041479428047 -0.0005622312907062255
0.5871399990317214 -2.2698125338527144 -0.0003748946087142855
0.5864030183499678 -2.6055641596519106 -0.0005995694519209986
0.5861301052336808 -2.8811404182124973 -0.0011123352081183098
0.5867416349289138 -3.086303727055695 -0.0017980871797685582
0.5879800235111429 -3.2108754786647222 -0.0027919596656891528
0.5871662064374565 -3.2494757941821693 -0.003991826369874957
0.5863911667167845 -3.2115137813236925 -0.0029623744305152877
0.5877510541534776 -3.0875994394899147 -0.0021288135244161956
0.5885820139876174 -2.8831294349083416 -0.0015776222473968989
0.588650680370061 -2.6082928760457604 -0.0011463044507324576
0.5884090032566625 -2.273323958564618 -0.0009037969414532402
0.5880052082934023 -1.888343248598164 -0.0009005166685586634
0.5872967437415193 -1.463532880865836 -0.0012594646980281165
0.5852460059840802 -1.0087256593720504 -0.0023948645788290502
0.5817750101569009 -0.5324852748784036 -0.005471273378568755
0.583329097653708 -0.052469105963562794 -0.011262265400950515
0.7850112786666433 -0.05576098504081446 -0.018557741560610623
0.7832635600763691 -0.5278648320545211 -0.01432535843500806
0.7746479582760851 -1.001825163696517 -0.013609260199156273
0.7620760443858318 -1.4572722460683807 -0.015349273291947851
0.746508801153999 -1.882771409277158 -0.01803582975167667
0.7275207017047848 -2.2683259605074255 -0.02095131428411964
0.705056387220781 -2.603850409728274 -0.023694797753880885
0.6792524719343724 -2.8792887495979342 -0.025978410691336277
0.6510999085544547 -3.084551037029329 -0.027484797007767826
0.6217953796776974 -3.2080712942899816 -0.028145096625771544
0.5872455305701397 -3.2419003315145667 -0.029221714396667743
0.5527348005344674 -3.20872124885768 -0.02839259718173517
0.5235520798281409 -3.0858713363087205 -0.027973394920894318
0.49561669669955233 -2.881317627418422 -0.026689200934133822
0.47014384894731065 -2.6066373739978497 -0.024583361735206213
0.4481434295762132 -2.271917388999687 -0.021926232314578253
0.42976461786652337 -1.8871800744801166 -0.018926870175490794
0.4149261679300844 -1.4624015210293813 -0.015870788993900327
0.40303227732748825 -1.0072639091571782 -0.013356624907877115
0.39476847107571394 -0.5325717541799481 -0.012907203251821623
0.3931891875496471 -0.058511272518644505 -0.01589009451432225
0.9755551008736062 -0.05790258956864274 -0.0227386598668082
0.9714470693746918 -0.5276437343527651 -0.020637999229649318
0.9584761076923577 -0.9996132124998935 -0.023439430404016134
0.9367098126293135 -1.4544515023323736 -0.028846642846406995
0.907141931411847 -1.8792810102020383 -0.03494243753757866
0.8700558777797041 -2.2640693449616864 -0.04082565953596988
0.8255747762932147 -2.5988598660951316 -0.0459488114548028
0.7740671463440868 -2.8735201969249555 -0.04983288676556125
0.7158814023915966 -3.0786012513417953 -0.052008108478026296
0.6555609044133565 -3.2014826325785335 -0.051267857444482846
0.5873385549697756 -3.225741432001787 -0.050252110811329645
0.5191566604519954 -3.2021447663682365 -0.051594357956073714
0.4589612742167982 -3.0799470077941704 -0.05265876735416286
0.4009955374672402 -2.8755897189853497 -0.05079638823326909
0.34981574092033657 -2.601704573236396 -0.047190508266735404
0.30577728658879083 -2.2677367662115087 -0.04226349941173327
0.26923094684472143 -1.8837817290047696 -0.03641083807338162
0.24022018172677267 -1.4596646407380158 -0.030050649521025416
0.21886536394939246 -1.00505832021714 -0.023933185778176887
0.20603972927961875 -0.5322876747107721 -0.01995990297448092
0.20197421750991867 -0.060806056772870376 -0.020792522025626255
1.1689332319485843 -0.05833933175524726 -0.027075260905980496
1.1642782243908578 -0.5269016017051282 -0.026585472760954923
1.1477994252226593 -0.9967052084986825 -0.032530643835947955
1.1164983857754454 -1.450017786282444 -0.04128034014008292
1.072580271379568 -1.8735015479058068 -0.050442173304427095
1.0170135124327118 -2.2569645297960137 -0.05894375580284732
0.9499903719900916 -2.590420271992308 -0.06608105173173116
0.8719304676216113 -2.8639498619606996 -0.07118882053268406
0.7835649449975413 -3.0673406820228744 -0.07363797437349384
0.6852316169544723 -3.1923427273513747 -0.07102847669892044
0.5874591212587703 -3.1999999999999997 -0.06036042140214873
0.4897304183115833 -3.1930180565964084 -0.07143644283836068
0.39153156811926215 -3.068713724415854 -0.07445603056128286
0.3033990974028419 -2.8660621263375696 -0.07241405116994108
0.225678626529142 -2.593323965472027 -0.06768978340193722
0.15909715034747318 -2.2607051679561536 -0.060864808426193184
0.10402768790502641 -1.8780790082227452 -0.05251545981980533
0.06052248887993164 -1.4552823821062415 -0.04319789319633998
0.029341390473685655 -1.0021394802480024 -0.03379150538009756
0.01269186975688375 -0.5315056162609229 -0.02662380203687063
0.007916092978363157 -0.06127524184956437 -0.025765892730162967
0.0 0.0 0.0
0.013689010021506392 -0.5015571969225286 0.008454684453906092
0.03470635576797018 -0.9592141046039535 0.016148028076895367
0.06445776573534721 -1.3988161568388573 0.023298225123931666
0.1055241731952068 -1.8100239327096252 0.028816257582518438
0.15832094952030923 -2.183696572613454 0.032689620785836405
0.22265661953065846 -2.510401415899244 0.03465260562101726
0.298224379375152 -2.7810785122907067 0.03452366431060382
0.3847250861928749 -2.9868635629200004 0.032387886736539105
0.48180461089131166 -3.1184416167529525 0.029156128541742682
0.5870117492908594 -3.165010451868467 0.02728673869979026
0.6922311080444962 -3.118679480604187 0.029175339751617506
0.7893489984551381 -2.987338556899455 0.03244017405267681
0.8759199808105262 -2.7817889132258955 0.03463963513177859
0.9516019850581876 -2.511343334002759 0.03488531467551453
1.0161194391541646 -2.184859548480832 0.033119388400001976
1.0692076505658106 -1.8113801897738055 0.029564797474425728
1.110757287698807 -1.4002979932333712 0.02449430021481599
1.1412942280276257 -0.9606885364971441 0.018142277533340776
1.1638632968344544 -0.5029678468962381 0.010755196786408792
1.1812403881772569 0.0 0.009440553631054442
0.20237891524003407 -0.014582663414624534 0.0012461593049244576
0.21057336161030352 -0.5008273004279589 0.0038763508685925505
0.22058039889932876 -0.9624522908121558 0.010081447804475435
0.2405631630335735 -1.40286916326025 0.015169818814309842
0.26790212729289187 -1.8155941581464639 0.019114849344880145
0.3030650267926671 -2.190683257253652 0.02175243440369131
0.34591626204297277 -2.518824211342119 0.023043596596448657
0.3962287881357356 -2.7909261144689514 0.022936313887786778
0.4536866862491824 -2.998171093235733 0.021551286148869916
0.5178537737897603 -3.1312441493340604 0.019409448323864566
0.5870648884781953 -3.178744506420846 0.018040266532722834
0.6562880147519703 -3.1314846090912356 0.01935991049125265
0.7204926934802943 -2.9986514529749586 0.021463015212888254
0.7780188905858954 -2.791645094868382 0.022834414723274705
0.8284408559485178 -2.51977888569654 0.0229738483891257
0.871461914157637 -2.1918652749338543 0.021791890976230854
0.906891637119232 -1.8169799161514923 0.01937721514521883
0.9346545353756951 -1.4043982237485573 0.015843151830217526
0.9553645788103385 -0.9640196709424484 0.011335918913009394
0.9666470196667222 -0.5024376719499978 0.006381518340902744
0.9755721672623402 -0.014834076513890437 0.007144761031704532
0.39672889653422533 -0.025676328788693564 -0.002243562922290029
0.4012719427254186 -0.5007292121364777 -0.00017502389296078779
0.40476025664539456 -0.9636537829716442 0.0039011476009429146
0.4139144387630551 -1.4053360484483732 0.007216971266516704
0.42758141019061785 -1.818853887800951 0.009520195164199073
0.4451007167065022 -2.194803243015474 0.01091051361344708
0.46647141429940275 -2.523779411308867 0.011445727238160518
0.4914980546085394 -2.796679774554998 0.011174961437753764
0.5198327302493069 -3.0047342183225614 0.010161008379892587
0.551553115225864 -3.138995217958596 0.008449599859638767
0.5871223177874519 -3.1879346775518718 0.0069386193357432605
0.6227031885868639 -3.1392394572430935 0.00833224083163398
0.6544598044461771 -3.0052222656642877 0.009934416100835904
0.6828592194492545 -2.797410625513015 0.010859497428978503
0.7079867092103533 -2.5247506534277884 0.011082528628555717
0.7295084686693656 -2.196007816987681 0.010573952393723614
0.7472550459902314 -1.820270972344672 0.009336007632567955
0.7612758400595905 -1.4069090723674216 0.007377661948805487
0.7710175666236885 -0.965309310217776 0.0046908655969406556
0.7751198254857654 -0.5022435873561455 0.0019070784282793738
0.7799346350796216 -0.025911657840702325 0.0022116657226668554
0.5870707857139628 -0.03312842241586238 -0.006946407679105506
0.588610710148824 -0.501071887590945 -0.004628828849331617
0.5869257590844592 -0.9636008105411116 -0.002262445449612456
0.5860222321432678 -1.4060618544374168 -0.0007569558480030528
0.5858546301762856 -1.8199463489059786 -0.00010398835912690566
0.5857488475115902 -2.196164837202523 -1.9779384919765842e-05
0.585636570890533 -2.525418364593227 -0.00031348740708882596
0.5854448602139263 -2.7985082736769447 -0.0008713166159894963
0.5847477758882533 -3.0067257435196106 -0.001667653763435234
0.5841797650123001 -3.1421415276096165 -0.0031104178956355946
0.5871818758887217 -3.1938143109897226 -0.0051618280903665496
0.5901952315853164 -3.1423906725540456 -0.003295727046160808
0.5896617632210153 -3.0072236486859283 -0.0020327693550037346
0.5890249701212087 -2.7992539608006304 -0.0014002913033117968
0.5889236545712209 -2.5264093682238813 -0.0009695102760023966
0.5889394507162895 -2.1973944338339155 -0.0007282902907937224
0.589014120135001 -1.8213942067587598 -0.0007294709633511149
0.5891160424431904 -1.4076787414723748 -0.001077307899550536
0.5885765668780021 -0.9652724437156931 -0.0019254895207757403
0.5871727578589697 -0.5024426823213364 -0.003052087520764405
0.5888454170112085 -0.03337591512227668 -0.00349557098758883
0.7761056447801132 -0.03737227233793245 -0.011799833002549266
0.774920934565772 -0.5013788016633003 -0.009262992478623458
0.7684822453676016 -0.9626654602992802 -0.00839592941592988
0.7581081580556726 -1.4051484221625268 -0.008696265623671874
0.7441758581838893 -1.8188720508622611 -0.009698103780456555
0.7264042357350166 -2.1948028026461675 -0.010932200083351606
0.7047750222216443 -2.5237863227860324 -0.012066641716206304
0.6794572977963735 -2.7965259013430455 -0.012912342356204875
0.6500250611313514 -3.0041793303299835 -0.013428025509563927
0.6167942395521925 -3.1405002250950123 -0.014223073936101406
0.587242679137871 -3.1973512721236927 -0.01701798086772185
0.5577019670892231 -3.1407554027597238 -0.014477607539210215
0.5245040558275175 -3.004689249622139 -0.013934415295243762
0.4951277171960136 -2.7972893303584834 -0.013659501235464683
0.46988992602315616 -2.5248001554858472 -0.013022622959398763
0.44836536641413205 -2.196059072394517 -0.01202325836878309
0.43072630934957673 -1.8203504902960037 -0.010778210388682975
0.41696076389943365 -1.4067951490993704 -0.009510263034568794
0.4067625706745208 -0.9643218994142707 -0.008545739623601778
0.4004262369168835 -0.5026382164281304 -0.008225138717621445
0.3993080719399696 -0.03764131351740091 -0.009193359250762223
0.9657352760530868 -0.0391993013113884 -0.016253152832988706
0.9622490701129448 -0.5013158149021797 -0.013785651773411579
0.9511942941576658 -0.9609521955806174 -0.014450845843897723
0.931591497225913 -1.4026645963275304 -0.01654932563936718
0.9039252477529058 -1.8155908729413923 -0.019198235768567704
0.868453653856562 -2.1906822901497076 -0.021718759035723085
0.82531875155079 -2.5188050523066856 -0.02364965283906919
0.7746714329017528 -2.790786656702426 -0.02466034699455501
0.7173167189799128 -2.997168040252772 -0.02471893860542383
0.65107251900972 -3.133066991893971 -0.023948823479497644
0.5873037849086201 -3.199449703488505 -0.02691553249684379
0.5235456211899543 -3.133329402727581 -0.024274949097430328
0.4573331070248925 -2.997692280706034 -0.025371835682566492
0.40003078884069043 -2.7915710048975444 -0.025634874367401653
0.34945470975889265 -2.5198451033415283 -0.02492067189222793
0.3064048363789112 -2.191967674827833 -0.023216398033962003
0.2710214451553363 -1.8170977548145335 -0.020769496263909348
0.2434255408709318 -1.4043289768147145 -0.017909898364755813
0.22384444630345846 -0.9625884660998352 -0.015157081627808423
0.21276253102917875 -0.5025079402416649 -0.013316810479513132
0.20928325766692918 -0.03947726925751578 -0.014379030671811843
1.1570151517404412 -0.039782875257489324 -0.019671797034842578
1.152331302164544 -0.5007792809706175 -0.01801809398176222
1.1369473999443898 -0.9584263648326568 -0.020459890333137963
1.107844955018196 -1.398530980687113 -0.0244332053332068
1.0663617209892982 -1.810007481925808 -0.02876392879712346
1.0132061261720244 -2.183666638740295 -0.032560207919292386
0.9485568537774471 -2.5103865712368942 -0.035210251356689204
0.8726297986887932 -2.7808476691085287 -0.036293193780586375
0.7863025086919789 -2.986480490924876 -0.035529189506737224
0.6924914650950739 -3.1180471640075504 -0.032740149449849626
0.5873628254579466 -3.1999999999999997 -0.031486821257937364
0.4822445993286511 -3.1183181060748675 -0.033141134323053094
0.38846451712620217 -2.9870215901721013 -0.03633591175342778
0.3021874271653161 -2.781656526757038 -0.03750822793821133
0.2263260555784442 -2.5114570700250884 -0.03681849273045026
0.16174904058062198 -2.1849848110138366 -0.034501234910503005
0.10865142092079566 -1.8115422539970083 -0.03088706762005515
0.06716742429433464 -1.4002050548662124 -0.02643516374488522
0.03795185738781232 -0.9600397965192349 -0.02184203709559537
0.022384159682275733 -0.5019312933347833 -0.018174217085534416
0.017621597931681363 -0.04004877073721169 -0.018381066706251156
0.0 0.0 0.0
0.01900401433103372 -0.488785512296558 0.0036530462523116872
0.03997002226711595 -0.9383396116552993 0.006855135333296526
0.06902966974746957 -1.371434435813367 0.009891014474222498
0.10891246495752295 -1.7776702968536764 0.012042393174039805
0.15978448557735261 -2.148294556708838 0.013133485886340546
0.22149798541153445 -2.4745069075920294 0.013078064993568811
0.2941453560512134 -2.7478531416924645 0.011895221546562466
0.37866102213406433 -2.959627256442036 0.009834527758202531
0.4768450738834259 -3.0988178945802365 0.007616142449794974
0.5870411976201118 -3.149447488642215 0.006553556789976784
0.697223111803711 -3.0987614943241555 0.007618187201578324
0.7953623722091552 -2.9594971173574116 0.00984711217542033
0.879795812302873 -2.747615333099484 0.011936807029473126
0.9523107519323359 -2.474113295214057 0.01317931549122428
1.0138199368689578 -2.1476896728391934 0.01333797705318587
1.0643828159178144 -1.776805798237816 0.012405989327681614
1.1037934642548106 -1.3702964237297246 0.01047235392324156
1.1321496683673153 -0.9369731220235603 0.007799107877286992
1.1516865404806411 -0.48715478541088203 0.005250208674741307
1.1665858211986735 0.0 0.005356844829073901
0.2032456889387423 -0.012610633991955243 0.0001320799763886672
0.21163636722318932 -0.48870854977968253 0.0018746865385907705
0.22272553054779526 -0.9417088129951117 0.004325610627353136
0.2425993476524827 -1.3757119356108123 0.0065358426096251195
0.26940563509458487 -1.7834848523459805 0.008129272491614804
0.3035384646255512 -2.155598634577492 0.008940306853603095
0.344894487208477 -2.4833773465680262 0.008956690721874973
0.393526946284868 -2.7584046799178012 0.008235717691951541
0.44988678550931904 -2.9721475896501555 0.006962378079257195
0.5148016824881732 -3.1136379833299275 0.005566140219952185
0.5870331246205894 -3.1657618899599393 0.004861879740586694
0.6592469694951357 -3.113576727112426 0.005525277829139061
0.7241070887906828 -2.972006473491537 0.006886754790118079
0.7803688820351036 -2.758147001198944 0.00813928986235786
0.8288492417236001 -2.48295020095893 0.00886420885021508
0.8699825342936959 -2.1549388170943806 0.008890826299041676
0.903795682636502 -1.782532421478018 0.008176965316030026
0.9301505490858099 -1.3744364049254956 0.0067629095205138535
0.9493362539098592 -0.9401154175146813 0.004854263773694593