# vtk DataFile Version 3.0
Some data
ASCII
DATASET UNSTRUCTURED_GRID
POINTS 1029 float
0.0 0.0 0.0
0.8 0.0 0.0
1.6 0.0 0.0
2.4000000000000004 0.0 0.0
3.2 0.0 0.0
4.0 0.0 0.0
4.800000000000001 0.0 0.0
5.6000000000000005 0.0 0.0
6.4 0.0 0.0
7.2 0.0 0.0
8.0 0.0 0.0
8.8 0.0 0.0
9.600000000000001 0.0 0.0
10.4 0.0 0.0
11.200000000000001 0.0 0.0
12.0 0.0 0.0
12.8 0.0 0.0
13.600000000000001 0.0 0.0
14.4 0.0 0.0
15.200000000000001 0.0 0.0
16.0 0.0 0.0
0.0 0.3333333333333333 0.0
0.8 0.3333333333333333 0.0
1.6 0.3333333333333333 0.0
2.4000000000000004 0.3333333333333333 0.0
3.2 0.3333333333333333 0.0
4.0 0.3333333333333333 0.0
4.800000000000001 0.3333333333333333 0.0
5.6000000000000005 0.3333333333333333 0.0
6.4 0.3333333333333333 0.0
7.2 0.3333333333333333 0.0
8.0 0.3333333333333333 0.0
8.8 0.3333333333333333 0.0
9.600000000000001 0.3333333333333333 0.0
10.4 0.3333333333333333 0.0
11.200000000000001 0.3333333333333333 0.0
12.0 0.3333333333333333 0.0
12.8 0.3333333333333333 0.0
13.600000000000001 0.3333333333333333 0.0
14.4 0.3333333333333333 0.0
15.200000000000001 0.3333333333333333 0.0
16.0 0.3333333333333333 0.0
0.0 0.6666666666666666 0.0
0.8 0.6666666666666666 0.0
1.6 0.6666666666666666 0.0
2.4000000000000004 0.6666666666666666 0.0
3.2 0.6666666666666666 0.0
4.0 0.6666666666666666 0.0
4.800000000000001 0.6666666666666666 0.0
5.6000000000000005 0.6666666666666666 0.0
6.4 0.6666666666666666 0.0
7.2 0.6666666666666666 0.0
8.0 0.6666666666666666 0.0
8.8 0.6666666666666666 0.0
9.600000000000001 0.6666666666666666 0.0
10.4 0.6666666666666666 0.0
11.200000000000001 0.6666666666666666 0.0
12.0 0.6666666666666666 0.0
12.8 0.6666666666666666 0.0
13.600000000000001 0.6666666666666666 0.0
14.4 0.6666666666666666 0.0
15.200000000000001 0.6666666666666666 0.0
16.0 0.6666666666666666 0.0
0.0 1.0 0.0
0.8 1.0 0.0
1.6 1.0 0.0
2.4000000000000004 1.0 0.0
3.2 1.0 0.0
4.0 1.0 0.0
4.800000000000001 1.0 0.0
5.6000000000000005 1.0 0.0
6.4 1.0 0.0
7.2 1.0 0.0
8.0 1.0 0.0
8.8 1.0 0.0
9.600000000000001 1.0 0.0
10.4 1.0 0.0
11.200000000000001 1.0 0.0
12.0 1.0 0.0
12.8 1.0 0.0
13.600000000000001 1.0 0.0
14.4 1.0 0.0
15.200000000000001 1.0 0.0
16.0 1.0 0.0
0.0 1.3333333333333333 0.0
0.8 1.3333333333333333 0.0
1.6 1.3333333333333333 0.0
2.4000000000000004 1.3333333333333333 0.0
3.2 1.3333333333333333 0.0
4.0 1.3333333333333333 0.0
4.800000000000001 1.3333333333333333 0.0
5.6000000000000005 1.3333333333333333 0.0
6.4 1.3333333333333333 0.0
7.2 1.3333333333333333 0.0
8.0 1.3333333333333333 0.0
8.8 1.3333333333333333 0.0
9.600000000000001 1.3333333333333333 0.0
10.4 1.3333333333333333 0.0
11.200000000000001 1.3333333333333333 0.0
12.0 1.3333333333333333 0.0
12.8 1.3333333333333333 0.0
13.600000000000001 1.3333333333333333 0.0
14.4 1.3333333333333333 0.0
15.200000000000001 1.3333333333333333 0.0
16.0 1.3333333333333333 0.0
0.0 1.6666666666666665 0.0
0.8 1.6666666666666665 0.0
1.6 1.6666666666666665 0.0
2.4000000000000004 1.6666666666666665 0.0
3.2 1.6666666666666665 0.0
4.0 1.6666666666666665 0.0
4.800000000000001 1.6666666666666665 0.0
5.6000000000000005 1.6666666666666665 0.0
6.4 1.6666666666666665 0.0
7.2 1.6666666666666665 0.0
8.0 1.6666666666666665 0.0
8.8 1.6666666666666665 0.0
9.600000000000001 1.6666666666666665 0.0
10.4 1.6666666666666665 0.0
11.200000000000001 1.6666666666666665 0.0
12.0 1.6666666666666665 0.0
12.8 1.6666666666666665 0.0
13.600000000000001 1.6666666666666665 0.0
14.4 1.6666666666666665 0.0
15.200000000000001 1.6666666666666665 0.0
16.0 1.6666666666666665 0.0
0.0 2.0 0.0
0.8 2.0 0.0
1.6 2.0 0.0
2.4000000000000004 2.0 0.0
3.2 2.0 0.0
4.0 2.0 0.0
4.800000000000001 2.0 0.0
5.6000000000000005 2.0 0.0
6.4 2.0 0.0
7.2 2.0 0.0
8.0 2.0 0.0
8.8 2.0 0.0
9.600000000000001 2.0 0.0
10.4 2.0 0.0
11.200000000000001 2.0 0.0
12.0 2.0 0.0
12.8 2.0 0.0
13.600000000000001 2.0 0.0
14.4 2.0 0.0
15.200000000000001 2.0 0.0
16.0 2.0 0.0
0.0 0.0 1.6666666666666667
0.8 0.0 1.6666666666666667
1.6 0.0 1.6666666666666667
2.4000000000000004 0.0 1.6666666666666667
3.2 0.0 1.6666666666666667
4.0 0.0 1.6666666666666667
4.800000000000001 0.0 1.6666666666666667
5.6000000000000005 0.0 1.6666666666666667
6.4 0.0 1.6666666666666667
7.2 0.0 1.6666666666666667
8.0 0.0 1.6666666666666667
8.8 0.0 1.6666666666666667
9.600000000000001 0.0 1.6666666666666667
10.4 0.0 1.6666666666666667
11.200000000000001 0.0 1.6666666666666667
12.0 0.0 1.6666666666666667
12.8 0.0 1.6666666666666667
13.600000000000001 0.0 1.6666666666666667
14.4 0.0 1.6666666666666667
15.200000000000001 0.0 1.6666666666666667
16.0 0.0 1.6666666666666667
0.0 0.3333333333333333 1.6666666666666667
0.8 0.3333333333333333 1.6666666666666667
1.6 0.3333333333333333 1.6666666666666667
2.4000000000000004 0.3333333333333333 1.6666666666666667
3.2 0.3333333333333333 1.6666666666666667
4.0 0.3333333333333333 1.6666666666666667
4.800000000000001 0.3333333333333333 1.6666666666666667
5.6000000000000005 0.3333333333333333 1.6666666666666667
6.4 0.3333333333333333 1.6666666666666667
7.2 0.3333333333333333 1.6666666666666667
8.0 0.3333333333333333 1.6666666666666667
8.8 0.3333333333333333 1.6666666666666667
9.600000000000001 0.3333333333333333 1.6666666666666667
10.4 0.3333333333333333 1.6666666666666667
11.200000000000001 0.3333333333333333 1.6666666666666667
12.0 0.3333333333333333 1.6666666666666667
12.8 0.3333333333333333 1.6666666666666667
13.600000000000001 0.3333333333333333 1.6666666666666667
14.4 0.3333333333333333 1.6666666666666667
15.200000000000001 0.3333333333333333 1.6666666666666667
16.0 0.3333333333333333 1.6666666666666667
0.0 0.6666666666666666 1.6666666666666667
0.8 0.6666666666666666 1.6666666666666667
1.6 0.6666666666666666 1.6666666666666667
2.4000000000000004 0.6666666666666666 1.6666666666666667
3.2 0.6666666666666666 1.6666666666666667
4.0 0.6666666666666666 1.6666666666666667
4.800000000000001 0.6666666666666666 1.6666666666666667
5.6000000000000005 0.6666666666666666 1.6666666666666667
6.4 0.6666666666666666 1.6666666666666667
7.2 0.6666666666666666 1.6666666666666667
8.0 0.6666666666666666 1.6666666666666667
8.8 0.6666666666666666 1.6666666666666667
9.600000000000001 0.6666666666666666 1.6666666666666667
10.4 0.6666666666666666 1.6666666666666667
11.200000000000001 0.6666666666666666 1.6666666666666667
12.0 0.6666666666666666 1.6666666666666667
12.8 0.6666666666666666 1.6666666666666667
13.600000000000001 0.6666666666666666 1.6666666666666667
14.4 0.6666666666666666 1.6666666666666667
15.200000000000001 0.6666666666666666 1.6666666666666667
16.0 0.6666666666666666 1.6666666666666667
0.0 1.0 1.6666666666666667
0.8 1.0 1.6666666666666667
1.6 1.0 1.6666666666666667
2.4000000000000004 1.0 1.6666666666666667
3.2 1.0 1.6666666666666667
4.0 1.0 1.6666666666666667
4.800000000000001 1.0 1.6666666666666667
5.6000000000000005 1.0 1.6666666666666667
6.4 1.0 1.6666666666666667
7.2 1.0 1.6666666666666667
8.0 1.0 1.6666666666666667
8.8 1.0 1.6666666666666667
9.600000000000001 1.0 1.6666666666666667
10.4 1.0 1.6666666666666667
11.200000000000001 1.0 1.6666666666666667
12.0 1.0 1.6666666666666667
12.8 1.0 1.6666666666666667
13.600000000000001 1.0 1.6666666666666667
14.4 1.0 1.6666666666666667
15.200000000000001 1.0 1.6666666666666667
16.0 1.0 1.6666666666666667
0.0 1.3333333333333333 1.6666666666666667
0.8 1.3333333333333333 1.6666666666666667
1.6 1.3333333333333333 1.6666666666666667
2.4000000000000004 1.3333333333333333 1.6666666666666667
3.2 1.3333333333333333 1.6666666666666667
4.0 1.3333333333333333 1.6666666666666667
4.800000000000001 1.3333333333333333 1.6666666666666667
5.6000000000000005 1.3333333333333333 1.6666666666666667
6.4 1.3333333333333333 1.6666666666666667
7.2 1.3333333333333333 1.6666666666666667
8.0 1.3333333333333333 1.6666666666666667
8.8 1.3333333333333333 1.6666666666666667
9.600000000000001 1.3333333333333333 1.6666666666666667
10.4 1.3333333333333333 1.6666666666666667
11.200000000000001 1.3333333333333333 1.6666666666666667
12.0 1.3333333333333333 1.6666666666666667
12.8 1.3333333333333333 1.6666666666666667
13.600000000000001 1.3333333333333333 1.6666666666666667
14.4 1.3333333333333333 1.6666666666666667
15.200000000000001 1.3333333333333333 1.6666666666666667
16.0 1.3333333333333333 1.6666666666666667
0.0 1.6666666666666665 1.6666666666666667
0.8 1.6666666666666665 1.6666666666666667
1.6 1.6666666666666665 1.6666666666666667
2.4000000000000004 1.6666666666666665 1.6666666666666667
3.2 1.6666666666666665 1.6666666666666667
4.0 1.6666666666666665 1.6666666666666667
4.800000000000001 1.6666666666666665 1.6666666666666667
5.6000000000000005 1.6666666666666665 1.6666666666666667
6.4 1.6666666666666665 1.6666666666666667
7.2 1.6666666666666665 1.6666666666666667
8.0 1.6666666666666665 1.6666666666666667
8.8 1.6666666666666665 1.6666666666666667
9.600000000000001 1.6666666666666665 1.6666666666666667
10.4 1.6666666666666665 1.6666666666666667
11.200000000000001 1.6666666666666665 1.6666666666666667
12.0 1.6666666666666665 1.6666666666666667
12.8 1.6666666666666665 1.6666666666666667
13.600000000000001 1.6666666666666665 1.6666666666666667
14.4 1.6666666666666665 1.6666666666666667
15.200000000000001 1.6666666666666665 1.6666666666666667
16.0 1.6666666666666665 1.6666666666666667
0.0 2.0 1.6666666666666667
0.8 2.0 1.6666666666666667
1.6 2.0 1.6666666666666667
2.4000000000000004 2.0 1.6666666666666667
3.2 2.0 1.6666666666666667
4.0 2.0 1.6666666666666667
4.800000000000001 2.0 1.6666666666666667
5.6000000000000005 2.0 1.6666666666666667
6.4 2.0 1.6666666666666667
7.2 2.0 1.6666666666666667
8.0 2.0 1.6666666666666667
8.8 2.0 1.6666666666666667
9.600000000000001 2.0 1.6666666666666667
10.4 2.0 1.6666666666666667
11.200000000000001 2.0 1.6666666666666667
12.0 2.0 1.6666666666666667
12.8 2.0 1.6666666666666667
13.600000000000001 2.0 1.6666666666666667
14.4 2.0 1.6666666666666667
15.200000000000001 2.0 1.6666666666666667
16.0 2.0 1.6666666666666667
0.0 0.0 3.3333333333333335
0.8 0.0 3.3333333333333335
1.6 0.0 3.3333333333333335
2.4000000000000004 0.0 3.3333333333333335
[...]
POINT_DATA 1029
VECTORS Disp float
0.0 0.0 0.0
0.001829292523738425 -0.06633287422785042 0.0015877565699797145
0.004405060430841171 -0.12499765946439219 0.0034187724917425547
0.007967542850976488 -0.181506379632373 0.0048809326055445825
0.01303717701398295 -0.23432698516245504 0.006205858691421892
0.019685065939399747 -0.28221412713622696 0.007301301407640983
0.027883769680782898 -0.32385195738620143 0.008121694232413157
0.03758369234912479 -0.35796799665083867 0.008608756446110047
0.048652274045010095 -0.3833217834769628 0.008721693603910424
0.060760212787003595 -0.3988542401369297 0.008527244956698115
0.07336164547658172 -0.40402986686725545 0.00835126046077669
0.08596755668178327 -0.3989300248206562 0.008534256879970378
0.09808980470439915 -0.38347512039288284 0.008738177275892395
0.10918526544915465 -0.3582021136129962 0.008640152539999276
0.11892960280294695 -0.324170721748668 0.008177369095468661
0.12719811664115738 -0.2826200470713359 0.007396285442760249
0.1339522378596697 -0.23481770522732098 0.006361454943555539
0.1391801905583224 -0.18206862939736312 0.005133870960729476
0.14297326243224642 -0.12560550129931006 0.003792006146314684
0.14594677237906223 -0.06693739068590795 0.002254375650713311
0.14873068912865095 0.0 -1.2871375365241522e-05
0.026033994994527822 -0.002832590834074958 -0.0008336505403313712
0.027157631376916305 -0.06603842082755014 0.0008317615495790325
0.028063488531956823 -0.1253970343110234 0.0021657412176628744
0.030397941453793972 -0.18197553855817886 0.003296322295479019
0.03369134925916324 -0.23500181332512193 0.004242567689750419
0.03803976338650171 -0.2830693323005295 0.005021155163512646
0.043418291232515296 -0.3248892900436936 0.005598122346641154
0.04979280058059074 -0.35918006038658534 0.0059468736501823855
0.05707632799354982 -0.3846855824329143 0.006049117384385338
0.0650569471984229 -0.40030629320918565 0.005946769685343901
0.07337529667879575 -0.40548693233917854 0.0058379072798572795
0.08169838194500625 -0.40038332490024275 0.005944356284599642
0.08969401836168948 -0.384841646347288 0.006046382378335238
0.0970053405701726 -0.35941887577125914 0.00594855813924079
0.10342481894305666 -0.3252155064621819 0.005612809580511335
0.10887211662616297 -0.28348664929049605 0.005062799398741973
0.11332246604780696 -0.23550924499846154 0.004333808551840835
0.11676262815268404 -0.18256179438642284 0.0034673610042900995
0.11930963749860418 -0.12603932938364637 0.0024758364518351716
0.1205185839913966 -0.0666908026540094 0.0012851374796003187
0.12180468121695837 -0.002989252888477009 -0.00033620875041074456
0.050611541633166966 -0.004918105705166169 -0.001362336078860194
0.05119093543731859 -0.0659396006853526 -7.372344846306673e-05
0.05129203032061547 -0.12548759314670282 0.0008786279088057585
0.05219782777552823 -0.1822589605303192 0.001580671144115298
0.05375357283361117 -0.23538887029176647 0.0021178316772841026
0.05584673221144897 -0.28357057901755045 0.0025278181380175096
0.05847446799433803 -0.3254989555753192 0.002813150048558604
0.06162372007635829 -0.3598986206790427 0.002968003582396044
0.06527128899833642 -0.3854980723711832 0.002989419475556564
0.06929139044759905 -0.4011376651730431 0.002884768739136556
0.0733861206483078 -0.4062301764093206 0.0027667875896465535
0.0774856775612398 -0.4012160447529468 0.0028729458548758906
0.08152099108176183 -0.38565703813004326 0.002967462963460347
0.08519636961155067 -0.36014230666328106 0.00293992476723856
0.0883897598552515 -0.32583265584130794 0.002786561945164517
0.09108334300787735 -0.2839989152820996 0.002516048231177943
0.09327112951427284 -0.23591209268763702 0.0021425332578772563
0.09495870961549213 -0.18286633530696877 0.001676129142435537
0.09604070366806758 -0.12615784803002456 0.0010929348672629507
0.09628584794032048 -0.06656897395100145 0.00028759615362269745
0.09693514152427166 -0.005159429760589876 -0.0008561510856337125
0.07446669217188762 -0.006254655329449583 -0.0018345086261238107
0.07462239228697555 -0.0659563551105894 -0.0009543940875349187
0.07411159663368791 -0.12541233304067667 -0.00042196768014274115
0.0737306405977929 -0.18231495948853027 -0.0001739448463446861
0.07352855571602257 -0.23550518492848213 -7.027891132766934e-05
0.07339249987896551 -0.2837265667315598 -4.686182607580863e-05
0.07330037729374739 -0.3256955199564552 -7.494618147356572e-05
0.07326626315421211 -0.3601425522765296 -0.00013904190099526598
0.07334270436611545 -0.3857879658819321 -0.00022476089744914168
0.0734975029388937 -0.401359434833062 -0.00034899495818665474
0.07339577580468694 -0.4061844742727503 -0.0004989782962082378
0.07329889583960661 -0.4014392226654172 -0.00037029680378198123
0.07346888176919356 -0.38594992993617994 -0.0002661016905137262
0.07357275174846052 -0.3603911793634705 -0.00019720278088197996
0.07358133504626524 -0.32603660950563795 -0.00014328805629445474
0.07355112540709047 -0.28416549482049 -0.00011297461763055615
0.07350065103668316 -0.23604290607468958 -0.00011256458351453788
0.07341209296769804 -0.1829416101081596 -0.00015743308719436312
0.0731557507480183 -0.12609070742145495 -0.00029935807229028997
0.0727218762696212 -0.06656065935976951 -0.0006839091722532053
0.07291613720672196 -0.00655863824543534 -0.0014077831750459338
0.09812640983332739 -0.006970123130098685 -0.0023197176950754805
0.09790794500954325 -0.06598310400680696 -0.0017906698043728265
0.0968309947845084 -0.1252281454620503 -0.001701157524888869
0.09525950554822737 -0.18215903075852927 -0.0019186591614851005
0.09331360014424876 -0.2353464261596208 -0.002254478718948168
0.09094008771309817 -0.2835407450633989 -0.0026189142855004
0.08813204840259918 -0.32548130121600155 -0.002961849719216538
0.08490655899179893 -0.3599110936997084 -0.0032473013363952382
0.08138748856930803 -0.38556887962863495 -0.0034355996259467234
0.07772442245971156 -0.4010089117862241 -0.003518137078195381
0.07340569132126998 -0.40523754143930546 -0.0036527142995566694
0.06909185006681376 -0.40109015610716847 -0.0035490746476828598
0.06544400997852307 -0.38573391703853 -0.003496674365070961
0.06195208708744922 -0.36016470342722984 -0.0033361501167205264
0.058767981118420576 -0.3258296717496495 -0.003072920216849802
0.056017928697035015 -0.2839896736248736 -0.0027407790392666525
0.05372057723332545 -0.23589750930993375 -0.0023658587718771817
0.051865770991272764 -0.18280019012860332 -0.001983848624175
0.05037903466594986 -0.12590798864459557 -0.00166957811341869
0.049346058884479294 -0.06657146927246271 -0.0016134004064080427
0.049148648443721264 -0.007313909064819369 -0.0019862618142162006
0.1219443876091961 -0.007237823696077131 -0.0028423324833503584
0.12143088367183194 -0.06595546679408744 -0.002579749903703038
0.11980951346154098 -0.12495165156247268 -0.002929928800496192
0.1170887265786609 -0.18180643779152805 -0.003605830355792066
0.11339274142647837 -0.23491012627523117 -0.004367804692185123
0.1087569847224621 -0.2830086681201828 -0.005103207441980838
0.10319684703665327 -0.3248574832618597 -0.005743601431829898
0.09675839329301272 -0.3591900246155851 -0.00622911084567069
0.08948517529895188 -0.3848251564176923 -0.006501013559726496
0.08194511305166892 -0.4001853290722934 -0.0064084821805325855
0.07341731937122145 -0.4032176790002151 -0.006281513851389631
0.06489458255649994 -0.4002680957959889 -0.006449294744473733
0.05737015927709944 -0.38499337597421146 -0.006582345919227333
0.05012444218340679 -0.3594487148730946 -0.006349548529109182
0.043726967615047116 -0.3252130716544671 -0.005898813533286801
0.038222160823607486 -0.28346709577635093 -0.0052829374264063925
0.033653868355603134 -0.23547271612551512 -0.004551354759109491
0.030027522715863376 -0.18245808009218206 -0.003756331190062307
0.027358170493693858 -0.12563229002709198 -0.002991648222203642
0.025754966159974198 -0.06653595933881547 -0.0024949878717389217
0.025246777188762205 -0.007600757096597223 -0.0025990652531279633
0.14611665399356627 -0.007292416469402697 -0.0033844076132470684
0.14553477804885104 -0.06586270021313279 -0.0033231840951163036
0.14347492815282656 -0.12458815106232193 -0.00406633047948796
0.13956229822192595 -0.18125222328528678 -0.005160042517501372
0.1340725339224421 -0.23418769348820184 -0.006305271663040881
0.1271266890540867 -0.28212056622447557 -0.007367969475339579
0.11874879649876145 -0.3238025339990075 -0.00826013146644447
0.10899130845270323 -0.35799373274505375 -0.008898602566557848
0.09794561812469615 -0.383417585252829 -0.009204746796656602
0.08565395211931298 -0.39904284091889625 -0.00887855958733541
0.07343239015734268 -0.4 -0.007545052675242692
0.061216302288937915 -0.3991272570745086 -0.008929555354758586
0.04894144601490136 -0.3835892155519214 -0.009307003820115397
0.037924887175352945 -0.3582577657921231 -0.009051756396189787
0.028209828316145324 -0.32416549568392183 -0.00846122292518348
0.019887143793443023 -0.2825881459944313 -0.007608101053208426
0.013003460988144495 -0.23475987602776283 -0.006564432477408191
0.007565311110013918 -0.18191029776321066 -0.005399736649473
0.0036676738092379186 -0.12526743503094984 -0.004223938172441648
0.0015864837196397335 -0.06643820203258458 -0.003327975254536196
0.0009895116223254657 -0.007659405231183919 -0.003220736591194003
0.0 0.0 0.0
0.0017111262526889191 -0.06269464961530702 0.0010568355567405156
0.004338294470996147 -0.11990176307547866 0.0020185035096163075
0.008057220716916936 -0.17485201960483712 0.0029122781404979613
0.013190521649398105 -0.226252991588682 0.003602032197822738
0.019790118690034435 -0.27296207157665836 0.0040862025982388046
0.027832077441326694 -0.3138001769873844 0.004331575702637251
0.0372780474218882 -0.34763481403631935 0.004315458038837695
0.048090635774105564 -0.3733579453649831 0.004048485842082304
0.06022557636141486 -0.389805202094103 0.0036445160677364375
0.07337646866136491 -0.3956263064835348 0.003410842337496338
0.08652888850557239 -0.3898349350754872 0.003646917468977883
0.0986686248069023 -0.373417319612386 0.004055021756613788
0.10948999760132373 -0.347723614153181 0.004329954391505113
0.11895024813227578 -0.3139179167502819 0.004360664334475779
0.1270149298942682 -0.2731074435600427 0.004139923550041518
0.13365095632071908 -0.22642252372166266 0.003695599684348851
0.13884466096233727 -0.1750372491541188 0.003061787526903393
0.14266177850343498 -0.12008606706210173 0.002267784691724938
0.14548291210428516 -0.06287098086200507 0.0013443995983644964
0.14765504852213218 0.0 0.0011800692039493014
0.025297364405002236 -0.0018228329268268019 0.000155769913115855
0.026321670201285615 -0.06260341255348595 0.0004845438585764155
0.02757254986241385 -0.120306536351504 0.0012601809755640012
0.03007039537919419 -0.17535864540751153 0.001896227351795501
0.03348776591160808 -0.2269492697682861 0.002389356168118629
0.03788312834907909 -0.27383540715668364 0.0027190543004717467
0.043239532755366426 -0.31485302641774326 0.0028804495745684087
0.049528598516961744 -0.34886576430860033 0.002867039235987843
0.05671083578114444 -0.37477138665444804 0.00269391076862631
0.06473172172371963 -0.39140551866674245 0.002426181040504374
0.07338311105977799 -0.39734306330258407 0.0022550333166160147
0.08203600184400232 -0.39143557613636876 0.002419988811435076
0.09006158668504312 -0.374831431621823 0.002682876901643048
0.0972523613232415 -0.34895563685849074 0.0028543018404449372
0.10355510699356615 -0.31497236071200335 0.0028717310486803473
0.10893273926970212 -0.27398315936667095 0.0027239863720729353
0.11336145463989858 -0.22712248951887415 0.002422151893201119
0.11683181692195274 -0.1755497779685155 0.001980393978831138
0.1194205723512797 -0.12050245886776428 0.0014169898641854268
0.12083087745832677 -0.06280470899372542 0.0007976897926774454
0.1219465209077775 -0.001854259564233412 0.0008930951290312284
0.049591112066774024 -0.003209541098584314 -0.0002804453652857029
0.05015899284067306 -0.06259115151705111 -2.1877986617561352e-05
0.050595032080670274 -0.12045672287144002 0.00048764345012268593
0.051739304845377976 -0.17566700605602714 0.0009021214083217021
0.053447676273823075 -0.22735673597509667 0.0011900243955343698
0.055637589588308514 -0.2743504053769116 0.0013638142016925616
0.05830892678742026 -0.3154724264135861 0.0014307159047845463
0.061437256826062284 -0.3495849718193581 0.0013968701797361471
0.06497909128115967 -0.3755917772903028 0.001270126047506732
0.06894413940323113 -0.39237440224481096 0.0010561999824785675
0.07339028972343203 -0.3984918346939623 0.000867327416996582
0.07783789857336067 -0.3924049321553521 0.0010415301039855486
0.08180747555577456 -0.3756527832079872 0.0012418020126393117
0.0853574024311583 -0.349676328189071 0.0013574371786610555
0.08849833865129401 -0.31559383167840843 0.0013853160786123078
0.09118855858366903 -0.2745009771233986 0.00132174404926282
0.09340688074877546 -0.22753387154302135 0.001167000954122843
0.09515948000744348 -0.1758636340458733 0.0009222077436570426
0.0963771958279547 -0.12066366377718082 0.0005863581996787135
0.096889978185714 -0.06278044841949365 0.0002383848036008397
0.09749182938494491 -0.003238957230082863 0.00027645821540298683
0.07338384821423935 -0.004141052801979708 -0.0008683009598875059
0.07357633876859691 -0.0626339859488594 -0.0005786036061636787
0.07336571988555149 -0.12045010131762375 -0.00028280568119649067
0.07325277901790281 -0.17575773180465773 -9.461948099267669e-05
0.07323182877203092 -0.22749329361322507 -1.2998544880458793e-05
0.07321860593894408 -0.27452060465029116 -2.472423101860834e-06
0.07320457136131198 -0.31567729557413027 -3.918592586981407e-05
0.07318060752673601 -0.3498135342096018 -0.00010891457697932133
0.0730934719860275 -0.37584071793993534 -0.00020845672040703967
0.07302247062653365 -0.3927676909511906 -0.0003888022369281666
0.07339773448608804 -0.39922678887369734 -0.0006452285112651133
0.0737744039481646 -0.39279883406922156 -0.00041196588073618074
0.07370772040262616 -0.37590295608569074 -0.0002540961693378558
0.07362812126514964 -0.3499067451000225 -0.00017503641287213898
0.07361545682140122 -0.31580117102791994 -0.00012118878445402106
0.07361743133953513 -0.27467430422917705 -9.103628629850762e-05
0.07362676501687382 -0.22767427584478084 -9.118387036406416e-05
0.07363950530539771 -0.17595984268399284 -0.00013466348738485658
0.07357207085974946 -0.12065905546442052 -0.00024068619003384109
0.07339659473237084 -0.0628053352901426 -0.00038151094002814544
0.07360567712640027 -0.004171989390278189 -0.0004369463733772439
0.09701320559750606 -0.004671534042238261 -0.001474979125317929
0.09686511682071353 -0.06267235020790343 -0.0011578740598249433
0.09606028067094266 -0.12033318253739508 -0.0010494911769858626
0.09476351975695244 -0.17564355277029692 -0.0010870332029508886
0.09302198227298006 -0.2273590063577609 -0.0012122629725457288
0.09080052946687184 -0.2743503503307475 -0.0013665250104043004
0.08809687777770117 -0.31547329034823157 -0.0015083302145074862
0.0849321622245429 -0.3495657376678636 -0.00161404279450414
0.08125313264141457 -0.3755224162912332 -0.0016785031886707312
0.07709927994401847 -0.3925625281368639 -0.0017778842419841627
0.07340533489222874 -0.3996689090154488 -0.0021272476084327674
0.06971274588614963 -0.3925944253449305 -0.0018097009423651495
0.06556300697843495 -0.3755861562027165 -0.0017418019118652212
0.06189096464949755 -0.3496611662947523 -0.0017074376543879995
0.05873624075289173 -0.3156000194356665 -0.0016278278698749697
0.05604567080176558 -0.2745073840492523 -0.0015029072960438385
0.053840788668698236 -0.2275438112869368 -0.0013472762985274802
0.052120095487432225 -0.1758493936373674 -0.0011887828792595972
0.050845321334319876 -0.12054023742674308 -0.0010682174528850075
0.05005327961461603 -0.06282977705349155 -0.0010281423396337323
0.04991350899250184 -0.004705164189668052 -0.00114916990627218
0.12071690950662603 -0.004899912663920049 -0.002031644104122825
0.12028113376410846 -0.06266447686276355 -0.0017232064716733563
0.11889928676969888 -0.12011902444756237 -0.0018063557304815858
0.11644893715323136 -0.17533307454092256 -0.002068665704912335
0.1129906559691064 -0.22694885911765167 -0.002399779471058925
0.10855670673206505 -0.2738352862686912 -0.00271484487944902
0.10316484394384497 -0.31485063153831216 -0.0029562066048634435
0.09683392911271567 -0.34884833208778654 -0.00308254337429522
0.08966458987248552 -0.3746460050315813 -0.003089867325650429
0.081384064876208 -0.3916333739867333 -0.002993602934906885
0.07341297311356955 -0.3999312129360558 -0.003364441562071432
0.0654432026487365 -0.39166617534091275 -0.0030343686371407104
0.057166638378102444 -0.3747115350882016 -0.003171479460277584
0.050003848605079435 -0.3489463756121364 -0.0032043592958766144
0.04368183871985784 -0.3149806379176261 -0.003115083986475139
0.038300604547363365 -0.2739959593534175 -0.002902049754187872
0.03387768064442039 -0.22713721935175357 -0.0025961870329276595
0.03042819260887403 -0.17554112210178624 -0.002238737295530295
0.027980555787942535 -0.12032355826243818 -0.0018946352034088182
0.026595316378659063 -0.06281349253018359 -0.001664601309868662
0.026160407208378422 -0.004934658657182142 -0.0017973788339018686
0.14462689396754308 -0.004972859407182689 -0.0024589746293544766
0.14404141277055663 -0.06259741012131831 -0.002252261747717219
0.14211842499303765 -0.11980329560406713 -0.0025574862916363343
0.13848061937726452 -0.17481637258587118 -0.003054150666642016
0.1332952151236551 -0.2262509352407038 -0.003595491099627602
0.1266507657714977 -0.272958329842514 -0.0040700259898937
0.11856960672217766 -0.31379832140458847 -0.004401281419563828
0.10907872483609746 -0.34760595863854915 -0.004536649222546376
0.09828781358649417 -0.3733100613655963 -0.004441148688311672
0.08656143313687956 -0.3897558955009297 -0.004092518681198599
0.07342035318223147 -0.4 -0.00393585265720715
0.060280574916064145 -0.3897897632593228 -0.004142641790341521
0.048558064640761914 -0.3733776987714616 -0.004541988969131998
0.03777342839565499 -0.34770706584457345 -0.004688528492224468
0.028290756947300315 -0.31393213375307216 -0.0046023115912491724
0.020218630072577924 -0.2731231013766683 -0.004312654363752404
0.013581427615104898 -0.22644278174956473 -0.003860883452442709
0.008395928036803803 -0.1750256318582249 -0.0033043954680437677
0.004743982173492513 -0.12000497456486381 -0.002730254636880094
0.0027980199603030702 -0.06274141166682357 -0.0022717771356200156
0.0022026997414793473 -0.005006096342144091 -0.0022976333382057085
0.0 0.0 0.0
0.002375501791376199 -0.06109818903706134 0.0004566307815409867
0.004996252783384484 -0.11729245145690002 0.0008568919166661498
0.00862870871842606 -0.1714293044766549 0.0012363768092840352
0.013614058119680125 -0.22220878710669212 0.001505299146762746
0.01997306069715605 -0.26853681958858755 0.0016416857358017953
0.027687248176427336 -0.30931336344899324 0.0016347581242066901
0.03676816950638867 -0.3434816427115544 0.0014869026933329106
0.04733262776674817 -0.3699534070552537 0.001229315969791412
0.05960563423542295 -0.3873522368225273 0.0009520178062455424
0.073380149702513 -0.39368093608026683 0.0008191945987714867
0.08715288897546476 -0.3873451867905008 0.0009522734002246145
0.09942029652614538 -0.3699371396696456 0.0012308890219561311
0.10997447653785752 -0.3434519166373948 0.0014921008787156
0.11903884399153922 -0.3092641619017118 0.001647414436439082
0.1267274921086119 -0.26846120910484494 0.0016672471316895518
0.13304785198971236 -0.22210072477967918 0.0015507486660070883
0.1379741830318328 -0.17128705296617264 0.0013090442404574089
0.1415187085458921 -0.11712164025291402 0.0009748884847186448
0.1439608175600553 -0.060894348176341914 0.0006562760844058253
0.14582322764980737 0.0 0.0006696056037014397
0.02540571111733833 -0.001576329248993251 1.650999704893735e-05
0.026454545902893253 -0.06108856872245183 0.00023433581732601317
0.027840691318467628 -0.11771360162437611 0.0005407013284236076
0.030324918456551702 -0.17196399195133438 0.0008169803262098893
0.033675704386812666 -0.22293560654323039 0.0010161590614606933
0.037942308078182385 -0.26944982932216915 0.0011175383567113505