# vtk DataFile Version 3.0
Some data
ASCII
DATASET UNSTRUCTURED_GRID
POINTS 1029 float
0.0 0.0 0.0
0.8 0.0 0.0
1.6 0.0 0.0
2.4000000000000004 0.0 0.0
3.2 0.0 0.0
4.0 0.0 0.0
4.800000000000001 0.0 0.0
5.6000000000000005 0.0 0.0
6.4 0.0 0.0
7.2 0.0 0.0
8.0 0.0 0.0
8.8 0.0 0.0
9.600000000000001 0.0 0.0
10.4 0.0 0.0
11.200000000000001 0.0 0.0
12.0 0.0 0.0
12.8 0.0 0.0
13.600000000000001 0.0 0.0
14.4 0.0 0.0
15.200000000000001 0.0 0.0
16.0 0.0 0.0
0.0 0.3333333333333333 0.0
0.8 0.3333333333333333 0.0
1.6 0.3333333333333333 0.0
2.4000000000000004 0.3333333333333333 0.0
3.2 0.3333333333333333 0.0
4.0 0.3333333333333333 0.0
4.800000000000001 0.3333333333333333 0.0
5.6000000000000005 0.3333333333333333 0.0
6.4 0.3333333333333333 0.0
7.2 0.3333333333333333 0.0
8.0 0.3333333333333333 0.0
8.8 0.3333333333333333 0.0
9.600000000000001 0.3333333333333333 0.0
10.4 0.3333333333333333 0.0
11.200000000000001 0.3333333333333333 0.0
12.0 0.3333333333333333 0.0
12.8 0.3333333333333333 0.0
13.600000000000001 0.3333333333333333 0.0
14.4 0.3333333333333333 0.0
15.200000000000001 0.3333333333333333 0.0
16.0 0.3333333333333333 0.0
0.0 0.6666666666666666 0.0
0.8 0.6666666666666666 0.0
1.6 0.6666666666666666 0.0
2.4000000000000004 0.6666666666666666 0.0
3.2 0.6666666666666666 0.0
4.0 0.6666666666666666 0.0
4.800000000000001 0.6666666666666666 0.0
5.6000000000000005 0.6666666666666666 0.0
6.4 0.6666666666666666 0.0
7.2 0.6666666666666666 0.0
8.0 0.6666666666666666 0.0
8.8 0.6666666666666666 0.0
9.600000000000001 0.6666666666666666 0.0
10.4 0.6666666666666666 0.0
11.200000000000001 0.6666666666666666 0.0
12.0 0.6666666666666666 0.0
12.8 0.6666666666666666 0.0
13.600000000000001 0.6666666666666666 0.0
14.4 0.6666666666666666 0.0
15.200000000000001 0.6666666666666666 0.0
16.0 0.6666666666666666 0.0
0.0 1.0 0.0
0.8 1.0 0.0
1.6 1.0 0.0
2.4000000000000004 1.0 0.0
3.2 1.0 0.0
4.0 1.0 0.0
4.800000000000001 1.0 0.0
5.6000000000000005 1.0 0.0
6.4 1.0 0.0
7.2 1.0 0.0
8.0 1.0 0.0
8.8 1.0 0.0
9.600000000000001 1.0 0.0
10.4 1.0 0.0
11.200000000000001 1.0 0.0
12.0 1.0 0.0
12.8 1.0 0.0
13.600000000000001 1.0 0.0
14.4 1.0 0.0
15.200000000000001 1.0 0.0
16.0 1.0 0.0
0.0 1.3333333333333333 0.0
0.8 1.3333333333333333 0.0
1.6 1.3333333333333333 0.0
2.4000000000000004 1.3333333333333333 0.0
3.2 1.3333333333333333 0.0
4.0 1.3333333333333333 0.0
4.800000000000001 1.3333333333333333 0.0
5.6000000000000005 1.3333333333333333 0.0
6.4 1.3333333333333333 0.0
7.2 1.3333333333333333 0.0
8.0 1.3333333333333333 0.0
8.8 1.3333333333333333 0.0
9.600000000000001 1.3333333333333333 0.0
10.4 1.3333333333333333 0.0
11.200000000000001 1.3333333333333333 0.0
12.0 1.3333333333333333 0.0
12.8 1.3333333333333333 0.0
13.600000000000001 1.3333333333333333 0.0
14.4 1.3333333333333333 0.0
15.200000000000001 1.3333333333333333 0.0
16.0 1.3333333333333333 0.0
0.0 1.6666666666666665 0.0
0.8 1.6666666666666665 0.0
1.6 1.6666666666666665 0.0
2.4000000000000004 1.6666666666666665 0.0
3.2 1.6666666666666665 0.0
4.0 1.6666666666666665 0.0
4.800000000000001 1.6666666666666665 0.0
5.6000000000000005 1.6666666666666665 0.0
6.4 1.6666666666666665 0.0
7.2 1.6666666666666665 0.0
8.0 1.6666666666666665 0.0
8.8 1.6666666666666665 0.0
9.600000000000001 1.6666666666666665 0.0
10.4 1.6666666666666665 0.0
11.200000000000001 1.6666666666666665 0.0
12.0 1.6666666666666665 0.0
12.8 1.6666666666666665 0.0
13.600000000000001 1.6666666666666665 0.0
14.4 1.6666666666666665 0.0
15.200000000000001 1.6666666666666665 0.0
16.0 1.6666666666666665 0.0
0.0 2.0 0.0
0.8 2.0 0.0
1.6 2.0 0.0
2.4000000000000004 2.0 0.0
3.2 2.0 0.0
4.0 2.0 0.0
4.800000000000001 2.0 0.0
5.6000000000000005 2.0 0.0
6.4 2.0 0.0
7.2 2.0 0.0
8.0 2.0 0.0
8.8 2.0 0.0
9.600000000000001 2.0 0.0
10.4 2.0 0.0
11.200000000000001 2.0 0.0
12.0 2.0 0.0
12.8 2.0 0.0
13.600000000000001 2.0 0.0
14.4 2.0 0.0
15.200000000000001 2.0 0.0
16.0 2.0 0.0
0.0 0.0 1.6666666666666667
0.8 0.0 1.6666666666666667
1.6 0.0 1.6666666666666667
2.4000000000000004 0.0 1.6666666666666667
3.2 0.0 1.6666666666666667
4.0 0.0 1.6666666666666667
4.800000000000001 0.0 1.6666666666666667
5.6000000000000005 0.0 1.6666666666666667
6.4 0.0 1.6666666666666667
7.2 0.0 1.6666666666666667
8.0 0.0 1.6666666666666667
8.8 0.0 1.6666666666666667
9.600000000000001 0.0 1.6666666666666667
10.4 0.0 1.6666666666666667
11.200000000000001 0.0 1.6666666666666667
12.0 0.0 1.6666666666666667
12.8 0.0 1.6666666666666667
13.600000000000001 0.0 1.6666666666666667
14.4 0.0 1.6666666666666667
15.200000000000001 0.0 1.6666666666666667
16.0 0.0 1.6666666666666667
0.0 0.3333333333333333 1.6666666666666667
0.8 0.3333333333333333 1.6666666666666667
1.6 0.3333333333333333 1.6666666666666667
2.4000000000000004 0.3333333333333333 1.6666666666666667
3.2 0.3333333333333333 1.6666666666666667
4.0 0.3333333333333333 1.6666666666666667
4.800000000000001 0.3333333333333333 1.6666666666666667
5.6000000000000005 0.3333333333333333 1.6666666666666667
6.4 0.3333333333333333 1.6666666666666667
7.2 0.3333333333333333 1.6666666666666667
8.0 0.3333333333333333 1.6666666666666667
8.8 0.3333333333333333 1.6666666666666667
9.600000000000001 0.3333333333333333 1.6666666666666667
10.4 0.3333333333333333 1.6666666666666667
11.200000000000001 0.3333333333333333 1.6666666666666667
12.0 0.3333333333333333 1.6666666666666667
12.8 0.3333333333333333 1.6666666666666667
13.600000000000001 0.3333333333333333 1.6666666666666667
14.4 0.3333333333333333 1.6666666666666667
15.200000000000001 0.3333333333333333 1.6666666666666667
16.0 0.3333333333333333 1.6666666666666667
0.0 0.6666666666666666 1.6666666666666667
0.8 0.6666666666666666 1.6666666666666667
1.6 0.6666666666666666 1.6666666666666667
2.4000000000000004 0.6666666666666666 1.6666666666666667
3.2 0.6666666666666666 1.6666666666666667
4.0 0.6666666666666666 1.6666666666666667
4.800000000000001 0.6666666666666666 1.6666666666666667
5.6000000000000005 0.6666666666666666 1.6666666666666667
6.4 0.6666666666666666 1.6666666666666667
7.2 0.6666666666666666 1.6666666666666667
8.0 0.6666666666666666 1.6666666666666667
8.8 0.6666666666666666 1.6666666666666667
9.600000000000001 0.6666666666666666 1.6666666666666667
10.4 0.6666666666666666 1.6666666666666667
11.200000000000001 0.6666666666666666 1.6666666666666667
12.0 0.6666666666666666 1.6666666666666667
12.8 0.6666666666666666 1.6666666666666667
13.600000000000001 0.6666666666666666 1.6666666666666667
14.4 0.6666666666666666 1.6666666666666667
15.200000000000001 0.6666666666666666 1.6666666666666667
16.0 0.6666666666666666 1.6666666666666667
0.0 1.0 1.6666666666666667
0.8 1.0 1.6666666666666667
1.6 1.0 1.6666666666666667
2.4000000000000004 1.0 1.6666666666666667
3.2 1.0 1.6666666666666667
4.0 1.0 1.6666666666666667
4.800000000000001 1.0 1.6666666666666667
5.6000000000000005 1.0 1.6666666666666667
6.4 1.0 1.6666666666666667
7.2 1.0 1.6666666666666667
8.0 1.0 1.6666666666666667
8.8 1.0 1.6666666666666667
9.600000000000001 1.0 1.6666666666666667
10.4 1.0 1.6666666666666667
11.200000000000001 1.0 1.6666666666666667
12.0 1.0 1.6666666666666667
12.8 1.0 1.6666666666666667
13.600000000000001 1.0 1.6666666666666667
14.4 1.0 1.6666666666666667
15.200000000000001 1.0 1.6666666666666667
16.0 1.0 1.6666666666666667
0.0 1.3333333333333333 1.6666666666666667
0.8 1.3333333333333333 1.6666666666666667
1.6 1.3333333333333333 1.6666666666666667
2.4000000000000004 1.3333333333333333 1.6666666666666667
3.2 1.3333333333333333 1.6666666666666667
4.0 1.3333333333333333 1.6666666666666667
4.800000000000001 1.3333333333333333 1.6666666666666667
5.6000000000000005 1.3333333333333333 1.6666666666666667
6.4 1.3333333333333333 1.6666666666666667
7.2 1.3333333333333333 1.6666666666666667
8.0 1.3333333333333333 1.6666666666666667
8.8 1.3333333333333333 1.6666666666666667
9.600000000000001 1.3333333333333333 1.6666666666666667
10.4 1.3333333333333333 1.6666666666666667
11.200000000000001 1.3333333333333333 1.6666666666666667
12.0 1.3333333333333333 1.6666666666666667
12.8 1.3333333333333333 1.6666666666666667
13.600000000000001 1.3333333333333333 1.6666666666666667
14.4 1.3333333333333333 1.6666666666666667
15.200000000000001 1.3333333333333333 1.6666666666666667
16.0 1.3333333333333333 1.6666666666666667
0.0 1.6666666666666665 1.6666666666666667
0.8 1.6666666666666665 1.6666666666666667
1.6 1.6666666666666665 1.6666666666666667
2.4000000000000004 1.6666666666666665 1.6666666666666667
3.2 1.6666666666666665 1.6666666666666667
4.0 1.6666666666666665 1.6666666666666667
4.800000000000001 1.6666666666666665 1.6666666666666667
5.6000000000000005 1.6666666666666665 1.6666666666666667
6.4 1.6666666666666665 1.6666666666666667
7.2 1.6666666666666665 1.6666666666666667
8.0 1.6666666666666665 1.6666666666666667
8.8 1.6666666666666665 1.6666666666666667
9.600000000000001 1.6666666666666665 1.6666666666666667
10.4 1.6666666666666665 1.6666666666666667
11.200000000000001 1.6666666666666665 1.6666666666666667
12.0 1.6666666666666665 1.6666666666666667
12.8 1.6666666666666665 1.6666666666666667
13.600000000000001 1.6666666666666665 1.6666666666666667
14.4 1.6666666666666665 1.6666666666666667
15.200000000000001 1.6666666666666665 1.6666666666666667
16.0 1.6666666666666665 1.6666666666666667
0.0 2.0 1.6666666666666667
0.8 2.0 1.6666666666666667
1.6 2.0 1.6666666666666667
2.4000000000000004 2.0 1.6666666666666667
3.2 2.0 1.6666666666666667
4.0 2.0 1.6666666666666667
4.800000000000001 2.0 1.6666666666666667
5.6000000000000005 2.0 1.6666666666666667
6.4 2.0 1.6666666666666667
7.2 2.0 1.6666666666666667
8.0 2.0 1.6666666666666667
8.8 2.0 1.6666666666666667
9.600000000000001 2.0 1.6666666666666667
10.4 2.0 1.6666666666666667
11.200000000000001 2.0 1.6666666666666667
12.0 2.0 1.6666666666666667
12.8 2.0 1.6666666666666667
13.600000000000001 2.0 1.6666666666666667
14.4 2.0 1.6666666666666667
15.200000000000001 2.0 1.6666666666666667
16.0 2.0 1.6666666666666667
0.0 0.0 3.3333333333333335
0.8 0.0 3.3333333333333335
1.6 0.0 3.3333333333333335
2.4000000000000004 0.0 3.3333333333333335
[...]
POINT_DATA 1029
VECTORS Disp float
0.0 0.0 0.0
0.029268680379688907 -1.0613259876458352 0.025404105119566655
0.07048096689332609 -1.9999625514306683 0.05470035986771292
0.12748068561548442 -2.90410207411846 0.07809492168848625
0.20859483222356734 -3.7492317625999747 0.09929373906250268
0.31496105503026206 -4.515426034180494 0.11682082252200032
0.446140314892456 -5.181631318180273 0.12994710771833118
0.6013390775859633 -5.727487946414363 0.137740103137411
0.778436384720098 -6.133148535632239 0.13954709766208576
0.9721634045918434 -6.381667842191701 0.136435919306605
1.1737863276248965 -6.464477869877023 0.13362016737173826
1.3754809069079423 -6.382880397131827 0.13654811007872203
1.5694368752697658 -6.135601926287883 0.13981083641340336
1.746964247185961 -5.731233817810008 0.13824244063902655
1.9028736448467365 -5.186731547981026 0.13083790552645438
2.0351698662583 -4.521920753143896 0.11834056708307412
2.1432358057547294 -3.7570832836394907 0.10178327909562644
2.226883048933346 -2.9130980703598355 0.08214193537022452
2.2875721989162625 -2.0096880207904237 0.06067209833937353
2.335148358065442 -1.0709982509754543 0.03607001040955734
2.3796910260589734 0.0 -0.00020594200791391158
0.4165439199124049 -0.04532145334524104 -0.013338408645338988
0.4345221020306123 -1.0566147332410163 0.013308184793171399
0.44901581651122874 -2.0063525489767717 0.034651859482445084
0.4863670632606223 -2.9116086169313484 0.052741156727448404
0.5390615881465224 -3.760029013202651 0.06788108303574124
0.6086362141839504 -4.52910931680934 0.08033848261589449
0.6946926597201833 -5.198228640700117 0.08956995754589978
0.796684809289385 -5.746880966186337 0.09514997840249065
0.9132212478967187 -6.1549693189274635 0.09678587814962294
1.0409111551746075 -6.40490069134775 0.09514831496487278
1.1740047468604133 -6.487790917427833 0.09340651647699902
1.3071741111196458 -6.406133198405183 0.09510970055273753
1.4351042937865552 -6.157466341558387 0.09674211805240021
1.5520854491223592 -5.750702012342217 0.09517693022679567
1.6547971030885682 -5.203448103397228 0.0898049532870347
1.7419538660183824 -4.535786388650504 0.08100479037862396
1.8131594567648217 -3.7681479199777512 0.0693409368280685
1.86820205044297 -2.9209887101847936 0.055477776067094475
1.9089541999777795 -2.01662927013982 0.03961338322764294
1.9282973438625064 -1.0670528424650654 0.020562199671702464
1.9488748994715561 -0.047828046215766584 -0.005379340008658952
0.809784666130659 -0.07868969128272461 -0.02179737726179821
0.8190549669970817 -1.055033610965869 -0.0011795751755005
0.8206724851298195 -2.0078014903476347 0.014058046540733572
0.835165244408418 -2.916143368485607 0.02529073830561989
0.8600571653377407 -3.766221924668957 0.03388530683625558
0.8935477153831415 -4.5371292642816865 0.04044509020792143
0.9355914879093532 -5.2079832892060995 0.045010400776506455
0.985979521221663 -5.758377930865636 0.04748805731783307
1.0443406239733055 -6.1679691579397495 0.047830711608316534
1.1086622471614975 -6.418202642769476 0.04615629982550233
1.174177930372699 -6.499682822549899 0.04426860143359593
1.2397708409794725 -6.419456716048449 0.04596713367711243
1.3043358573078314 -6.170512610082454 0.04747940741431296
1.3631419137844742 -5.76227690661458 0.0470387962746705
1.4142361576837457 -5.213322493463284 0.04458499112136898
1.4573334881258229 -4.5439826445161975 0.04025677169746635
1.492338072228204 -3.7745934830045758 0.034280532124524955
1.519339353847758 -2.9258613649135374 0.026818066277320876
1.536651258689011 -2.0185255684819072 0.017486957874413775
1.5405735670450689 -1.0651035832169322 0.004601538456010182
1.550962264388314 -0.082550876169672 -0.013698417372257162
1.1914670747502312 -0.10007448527127455 -0.02935213801800884
1.1939582765916397 -1.055301681769665 -0.015270305400652013
1.1857855461390296 -2.006597328651231 -0.0067514828824448364
1.1796902495646857 -2.9170393518169937 -0.002783117541747702
1.1764568914563627 -3.7680829588564047 -0.0011244625815584788
1.1742799980634309 -4.539625067705804 -0.000749789217612766
1.1728060366999102 -5.211128319304229 -0.0011991389040715574
1.1722602104673243 -5.762280836425425 -0.0022246704164985954
1.1734832698577997 -6.172607454111771 -0.0035961743598335854
1.175960047022269 -6.421750957329797 -0.005583919331709433
1.1743324128748422 -6.498951588364606 -0.007983652740103705
1.1727823334334484 -6.423027562647974 -0.005924748861467595
1.1755021083068273 -6.175198878980637 -0.0042576270493467575
1.1771640279751157 -5.766258869817628 -0.003155244495369439
1.1773013607400147 -5.2165857520926115 -0.0022926089021026415
1.1768180065132143 -4.546647917130396 -0.001807593883597734
1.1760104165866911 -3.7766864971973995 -0.0018010333378645283
1.174593487482929 -2.9270657617326057 -0.002518929396858675
1.1704920119680438 -2.0174513187447887 -0.004789729158516171
1.1635500203136826 -1.0649705497572237 -0.01094254675805725
1.1666581953073025 -0.10493821192726079 -0.022524530802887053
1.5700225573333189 -0.11152197008166834 -0.03711548312123093
1.5665271201527677 -1.055729664109144 -0.02865071687005827
1.5492959165521956 -2.0036503273932142 -0.027218520398386205
1.5241520887716784 -2.9145444921369936 -0.030698546584007586
1.4930176023080117 -3.7655428185546267 -0.036071659503508484
1.4550414034095613 -4.536651921015214 -0.04190262856843572
1.4101127744415354 -5.207700819456954 -0.0473895955080133
1.358504943868709 -5.7585774991963 -0.05195682138297181
1.302199817108887 -6.169102074059069 -0.05496959401585981
1.2435907593554 -6.4161425885803025 -0.05629019325189606
1.174491061140238 -6.483800663029358 -0.05844342879370151
1.1054696010688607 -6.41744249771588 -0.05678519436393233
1.0471041596562027 -6.171742672618256 -0.05594678984234081
0.9912333933990297 -5.762635254837816 -0.05337840186889226
0.9402876978945262 -5.213274747996795 -0.04916672347110089
0.8962868591523091 -4.543834778000541 -0.04385246462990894
0.8595292357329068 -3.7743601489613137 -0.03785374035178115
0.8298523358600057 -2.9248030420596893 -0.03174157798864898
0.8060645546547848 -2.01452781831504 -0.02671324981664717
0.7895369421512228 -1.0651435083603098 -0.025814406504585687
0.7863783750990823 -0.1170225450374416 -0.03178018902964696
1.9511102017472666 -0.1158051791373259 -0.0454773197336228
1.9428941387494345 -1.0552874687056335 -0.04127599845933891
1.9169522153847565 -1.9992264249999703 -0.04687886080810871
1.8734196252586635 -2.9089030046649897 -0.05769328569293033
1.8142838628237203 -3.7585620204043724 -0.06988487507532255
1.7401117555594072 -4.52813868992372 -0.08165131907214697
1.6511495525864006 -5.197719732190655 -0.09189762290987917
1.54813429268814 -5.747040393850361 -0.0996657735314542
1.4317628047831614 -6.157202502684005 -0.10401621695641725
1.3111218088267151 -6.4029652651573885 -0.10253571488934671
1.1746771099395488 -6.451482864003702 -0.10050422162302512
1.038313320903982 -6.404289532736995 -0.10318871591262954
0.9179225484335919 -6.159894015589124 -0.10531753470891227
0.8019910749344501 -5.751179437971691 -0.10159277646720977
0.6996314818406035 -5.203409146473896 -0.09438101653421724
0.6115545731774621 -4.535473532424185 -0.08452699882427965
0.5384618936892706 -3.7675634580106268 -0.07282167614761703
0.48044036345331803 -2.919329281476959 -0.060101299042941404
0.4377307278985142 -2.010116640434954 -0.04786637155727982
0.4120794585589423 -1.064575349421957 -0.03991980594992515
0.40394843501953337 -0.12161211354589782 -0.04158504405227092
2.3378664638972473 -0.11667866351053639 -0.05415052181196492
2.3285564487817947 -1.053803203410356 -0.05317094552194729
2.2955988504453844 -1.9934104169975502 -0.06506128767196978
2.232996771550939 -2.9000355725651112 -0.08256068028028378
2.1451605427591725 -3.747003095811897 -0.1008843466090186
2.0340270248654395 -4.513929059592339 -0.11788751160591
1.899980743980177 -5.180840543985009 -0.13216210346374688
1.7438609352431889 -5.727899723921833 -0.14237764106574302
1.567129889995029 -6.134681364046165 -0.1472759487473985
1.370463233908886 -6.384685454703098 -0.14205695339824617
1.1749182425175888 -6.400000000000001 -0.12072084280465904
0.9794608366232878 -6.3860361131933905 -0.14287288567722148
0.7830631362386016 -6.1374274488324865 -0.1489120611231702
0.6067981948057137 -5.732124252676115 -0.144828102340601
0.4513572530582477 -5.1866479309451625 -0.1353795668046734
0.3181943006948187 -4.521410335913499 -0.12172961685327363
0.2080553758098308 -3.7561580164465536 -0.10503091964051949
0.1210449777595552 -2.9105647642133996 -0.08639578639361746
0.0586827809470062 -2.0042789604966766 -0.06758301076114803
0.025383739513373946 -1.0630112325222547 -0.05324760407472261
0.015832185956324032 -0.12255048369928709 -0.05153178546135829
0.0 0.0 0.0
0.027378020043004943 -1.0031143938451754 0.016909368907780883
0.06941271153594054 -1.9184282092081124 0.03229605615372949
0.12891553147071028 -2.7976323136779766 0.04659645024777208
0.2110483463904507 -3.6200478654195223 0.057632515164927574
0.31664189904067286 -4.367393145227193 0.06537924157154536
0.4453132390613885 -5.0208028317987425 0.06930521124189731
0.5964487587503755 -5.562157024581656 0.06904732862103942
0.7694501723858002 -5.97372712584023 0.06477577347287564
0.9636092217826067 -6.236883233506056 0.05831225708323156
1.1740234985815992 -6.3300209037372595 0.054573477399275
1.3844622160888447 -6.237358961208821 0.05835067950288691
1.5786979969101207 -5.974677113799515 0.06488034810495619
1.7518399616209352 -5.563577826452542 0.06927927026310961
1.9032039701163428 -5.022686668006375 0.06977062935053416
2.032238878308356 -4.369719096962457 0.06623877679943907
2.1384153011317113 -3.622760379548433 0.0591295949482312
2.2215145753977863 -2.8005959864674512 0.048988600428933646
2.282588456055495 -1.921377072994841 0.036284555065903286
2.3277265936691993 -1.0059356937928055 0.021510393571958497
2.3624807763548543 0.0 0.018881107261194373
0.4047578304800924 -0.029165326829265738 0.002492318609845258
0.4211467232206355 -1.0016546008560372 0.007752701737152668
0.4411607977986875 -1.9249045816245112 0.020162895608887885
0.4811263260671784 -2.8057383265207636 0.030339637628525276
0.5358042545858247 -3.6311883162932115 0.038229698689641975
0.6061300535853881 -4.381366514507592 0.04350486880724099
0.6918325240860107 -5.037648422684502 0.04608719319272908
0.7924575762715381 -5.581852228938144 0.0458726277753741
0.907373372498401 -5.996342186471673 0.04310257229749925
1.0357075475795225 -6.262488298668298 0.038818896647436575
1.1741297769563355 -6.357489012841983 0.03608053306510045
1.3125760295038476 -6.262969218182924 0.03871982098211731
1.4409853869605 -5.997302905950561 0.04292603042534054
1.5560377811717254 -5.583290189737533 0.04566882944606453
1.6568817118970158 -5.0395577713939295 0.04594769677771193
1.7429238283152988 -4.3837305498685275 0.043583781951859704
1.8137832742385338 -3.6339598323038085 0.03875443028977502
1.8693090707515143 -2.808796447497845 0.03168630365970133
1.9107291576208443 -1.9280393418854513 0.022671837825215604
1.9332940393336326 -1.0048753439003197 0.012763036680930546
1.9511443345248811 -0.02966815302782004 0.014289522062485776
0.7934577930685046 -0.05135265757741961 -0.004487125844586564
0.8025438854508931 -1.0014584242730669 -0.0003500477859555989
0.8095205132908395 -1.9273075659434913 0.007802295201819481
0.8278288775261606 -2.810672096896996 0.014433942532934046
0.8551628203812843 -3.6377077756021876 0.019040390328268972
0.8902014334130575 -4.3896064860312505 0.021821027226732174
0.932942828598869 -5.047558822618014 0.02289145447612526
0.9829961092171436 -5.593359549110227 0.022349922875276512
1.039665460498655 -6.009468436645315 0.02032201675951255
1.1031062304517505 -6.277990435917346 0.01689919971895544
1.1742446355748835 -6.375869355104018 0.013877238671099195
1.245406377173678 -6.27847891448663 0.01666448166284043
1.3089196088923203 -6.010444531329212 0.019868832201195424
1.3657184388984855 -5.594821251026786 0.021718994857430948
1.4159734184207036 -5.0495013068564525 0.022165057256527867
1.459016937338749 -4.392015633976177 0.02114790478680455
1.4945100919805052 -3.640541944690185 0.018672015264429576
1.5225516801192471 -2.813818144735572 0.014755323896845736
1.5420351332474622 -1.9306186204360969 0.00938173119305278
1.5502396509716156 -1.0044871747126196 0.0038141568556656676
1.5598692701593446 -0.05182331568147091 0.00442333144439129
1.1741415714280028 -0.06625684483176497 -0.013892815358218338
1.177221420297723 -1.0021437751820028 -0.009257657698699982
1.1738515181689864 -1.9272016210824228 -0.004524890899292934
1.1720444642866061 -2.812123708875089 -0.0015139116961120198
1.1717092603526331 -3.6398926978122494 -0.0002079767183938692
1.1714976950232425 -4.392329674405358 -3.955877001936296e-05
1.1712731417811224 -5.050836729186748 -0.000626974814399639
1.1708897204279112 -5.59701654735408 -0.0017426332322412496
1.1694955517765544 -6.0134514870394025 -0.003335307527173326
1.1683595300246445 -6.284283055219382 -0.006220835791623505
1.174363751777462 -6.387628621979638 -0.01032365618114717
1.1803904631706306 -6.284781345108562 -0.006591454092780346
1.179323526442039 -6.014447297372515 -0.004065538710519531
1.178049940242436 -5.598507921602015 -0.002800582607190726
1.1778473091424508 -5.05281873644863 -0.0019390205526305993
1.177878901432591 -4.3947888676686535 -0.0014565805822738388
1.17802824027002 -3.6427884135183795 -0.0014589419274474117
1.1782320848863912 -2.8153574829454664 -0.0021546157998993945
1.1771531337560093 -1.930544887431938 -0.0038509790424065943
1.1743455157179428 -1.0048853646429985 -0.0061041750424416785
1.177690834022427 -0.06675183024463897 -0.006991141976143178
1.5522112895603244 -0.07474454467590824 -0.02359966600510568
1.5498418691316465 -1.002757603326715 -0.01852598495728552
1.5369644907352968 -1.9253309205987554 -0.01679185883193128
1.516216316111427 -2.8102968443253085 -0.017392531247452547
1.48835171636785 -3.6377441017248042 -0.019396207561065033
1.4528084714700935 -4.389605605292646 -0.021864400166903306
1.4095500444433393 -5.047572645572342 -0.024133283432659646
1.358914595592791 -5.593051802686295 -0.025824684712698727
1.3000501222627578 -6.008358660660164 -0.02685605101946236
1.2335884791044536 -6.28100045019017 -0.028446147872584777
1.1744853582758052 -6.394702544247535 -0.03403596173587669
1.1154039341784843 -6.281510805519913 -0.02895521507891045
1.049008111655093 -6.009378499244918 -0.027868830591035523
0.9902554343920754 -5.5945786607177235 -0.027319002471540885
0.9397798520463421 -5.049600310972541 -0.026045245919472902
0.8967307328282733 -4.392118144789857 -0.024046516738298468
0.8614526186991315 -3.6407009805928623 -0.021556420778150207
0.8339215277988219 -2.813590298199456 -0.019020526069969408
0.813525141348976 -1.9286437988290857 -0.017091479248085864
0.8008524738336895 -1.005276432856593 -0.01645027743617669
0.7986161438798625 -0.07528262703489516 -0.018386718502513638
1.9314705521062996 -0.07839860262282211 -0.03250630566598398
1.9244981402260142 -1.0026316298044746 -0.02757130354686246
1.9023885883154508 -1.92190439116143 -0.0289016916878696
1.8631829944519158 -2.8053291926553126 -0.033098651278847854
1.8078504955059 -3.631181745883069 -0.038396471537297645
1.7369073077131865 -4.381364580299701 -0.04343751807166678
1.6506375031016216 -5.037610104613686 -0.04729930567840865
1.549342865803547 -5.581573313405064 -0.049320693989436074
1.4346334379598655 -5.994336080505716 -0.04943787721121909
1.302145038019523 -6.266133983788119 -0.04789764695940257
1.1746075698173448 -6.3988994069770895 -0.05383106499414655
1.0470912423800058 -6.266658805455625 -0.04854989819537592
0.9146662140499006 -5.995384561412749 -0.0507436713657185
0.8000615776814686 -5.58314200979583 -0.05126974873546166
0.6989094195178289 -5.039690206683925 -0.049841343785178446
0.6128096727578228 -4.3839353496564994 -0.04643279606870143
0.5420428903106247 -3.634195509629908 -0.041538992528645034
0.48685108174175806 -2.8086579536301377 -0.03581979673038046
0.447688892606775 -1.925176932200226 -0.030314163256526142
0.42552506205819757 -1.0050158804836595 -0.02663362095998043
0.41856651533369027 -0.07895453851512993 -0.028758061344633774
2.314030303481039 -0.07956575051502228 -0.03934359406969138
2.304662604329232 -1.0015585619413532 -0.03603618796356273
2.2738947998889207 -1.9168527296654996 -0.04091978066635277
2.2156899100365237 -2.797061961374464 -0.04886641066653198
2.1327234419786882 -3.620014963851909 -0.05752785759441614
2.0264122523441133 -4.367333277480879 -0.06512041583882261
1.8971137075549238 -5.020773142474113 -0.07042050271367721
1.7452595973776077 -5.561695338217263 -0.07258638756153851
1.572605017383999 -5.972960981849944 -0.07105837901388795
1.3849829301902046 -6.236094328015278 -0.0654802989001389
1.1747256509160393 -6.400000000000001 -0.06297364251634675
0.964489198657523 -6.236636212150162 -0.06628226864664795
0.7769290342525822 -5.974043180344882 -0.07267182350748218
0.6043748543307524 -5.563313053514827 -0.07501645587712619
0.4526521111569528 -5.022914140051027 -0.07363698546167316
0.3234980811612375 -4.3699696220285045 -0.06900246982182416
0.21730284184151533 -3.62308450799483 -0.0617741352409777
0.13433484858850908 -2.800410109733122 -0.05287032749067349
0.07590371477540682 -1.9200795930390164 -0.043684074192128323
0.04476831936429714 -1.0038625866698954 -0.03634843417203969
0.035243195863102664 -0.08009754147452126 -0.036762133413527326
0.0 0.0 0.0
0.038008028662108784 -0.9775710245932293 0.007306092504595998
0.07994004453429981 -1.8766792233107605 0.013710270666535846
0.13805933949504107 -2.742868871626954 0.019782028948359877
0.21782492991518146 -3.555340593707575 0.02408478634796961
0.3195689711548775 -4.296589113417899 0.026266971772553868
0.44299597082326114 -4.949013815184188 0.02615612998698674
0.5882907121026009 -5.495706283384974 0.023790443092949205
0.7573220442682659 -5.919254512884068 0.019669055516183122
0.95369014776692 -6.197635789160476 0.015232284899297796
1.1740823952402355 -6.298894977284533 0.01310711357961757
1.3944462236074047 -6.197522988648545 0.01523637440278207
1.5907247444182924 -5.918994234715225 0.019694224350452018
1.759591624605764 -5.495230666199509 0.023873614058520287
1.9046215038646972 -4.948226590428703 0.02635863098195898
2.0276398737380266 -4.295379345679118 0.02667595410581171
2.128765631835819 -3.5536115964762747 0.02481197865472621
2.207586928509861 -2.7405928474600176 0.02094470784577425
2.264299336734916 -1.873946244047544 0.015598215753789463
2.303373080961617 -0.9743095708220147 0.010500417348625871
2.3331716423977125 0.0 0.010713689657238146
0.40649137787754286 -0.02522126798392603 0.00026415995277303866
0.4232727344464507 -0.9774170995594742 0.00374937307715215
0.44545106109568144 -1.883417625990395 0.008651221254645172
0.4851986953050788 -2.751423871221849 0.013071685219158235
0.5388112701893071 -3.5669697046921884 0.016258544983107397
0.6070769292512538 -4.311197269155199 0.017880613707056923
0.6897889744171146 -4.966754693136169 0.017913381443567824
0.7870538925698864 -5.516809359835665 0.016471435383685857
0.899773571018764 -5.9442951793003065 0.013924756158247713
1.029603364976435 -6.227275966659851 0.011132280439591318
1.1740662492412346 -6.331523779919972 0.009723759480806511
1.3184939389903125 -6.227153454225066 0.011050555657876876
1.4482141775814126 -5.944012946983448 0.013773509579798652
1.560737764070257 -5.51629400239841 0.016278579724230437
1.6576984834472657 -4.965900401918474 0.017728417699888255
1.7399650685875037 -4.309877634189512 0.017781652597479648
1.8075913652731603 -3.565064842956679 0.016353930631389738
1.860301098171817 -2.748872809851575 0.013525819040289613
1.8986725078199476 -1.8802308350297883 0.009708527546579072
1.9185477921939569 -0.973403007198615 0.006661860747933125
1.9343764547961446 -0.023975427065123508 0.008502641230576967
0.7906653543820724 -0.043477768652204186 -0.002533437849918962
0.799295711666412 -0.9770024246929319 -0.00014619235275891156
0.8074223323762036 -1.8865032038762009 0.0032057894952299856