# vtk DataFile Version 3.0
Some data
ASCII
DATASET UNSTRUCTURED_GRID
POINTS 1029 float
0.0 0.0 0.0
0.8 0.0 0.0
1.6 0.0 0.0
2.4000000000000004 0.0 0.0
3.2 0.0 0.0
4.0 0.0 0.0
4.800000000000001 0.0 0.0
5.6000000000000005 0.0 0.0
6.4 0.0 0.0
7.2 0.0 0.0
8.0 0.0 0.0
8.8 0.0 0.0
9.600000000000001 0.0 0.0
10.4 0.0 0.0
11.200000000000001 0.0 0.0
12.0 0.0 0.0
12.8 0.0 0.0
13.600000000000001 0.0 0.0
14.4 0.0 0.0
15.200000000000001 0.0 0.0
16.0 0.0 0.0
0.0 0.3333333333333333 0.0
0.8 0.3333333333333333 0.0
1.6 0.3333333333333333 0.0
2.4000000000000004 0.3333333333333333 0.0
3.2 0.3333333333333333 0.0
4.0 0.3333333333333333 0.0
4.800000000000001 0.3333333333333333 0.0
5.6000000000000005 0.3333333333333333 0.0
6.4 0.3333333333333333 0.0
7.2 0.3333333333333333 0.0
8.0 0.3333333333333333 0.0
8.8 0.3333333333333333 0.0
9.600000000000001 0.3333333333333333 0.0
10.4 0.3333333333333333 0.0
11.200000000000001 0.3333333333333333 0.0
12.0 0.3333333333333333 0.0
12.8 0.3333333333333333 0.0
13.600000000000001 0.3333333333333333 0.0
14.4 0.3333333333333333 0.0
15.200000000000001 0.3333333333333333 0.0
16.0 0.3333333333333333 0.0
0.0 0.6666666666666666 0.0
0.8 0.6666666666666666 0.0
1.6 0.6666666666666666 0.0
2.4000000000000004 0.6666666666666666 0.0
3.2 0.6666666666666666 0.0
4.0 0.6666666666666666 0.0
4.800000000000001 0.6666666666666666 0.0
5.6000000000000005 0.6666666666666666 0.0
6.4 0.6666666666666666 0.0
7.2 0.6666666666666666 0.0
8.0 0.6666666666666666 0.0
8.8 0.6666666666666666 0.0
9.600000000000001 0.6666666666666666 0.0
10.4 0.6666666666666666 0.0
11.200000000000001 0.6666666666666666 0.0
12.0 0.6666666666666666 0.0
12.8 0.6666666666666666 0.0
13.600000000000001 0.6666666666666666 0.0
14.4 0.6666666666666666 0.0
15.200000000000001 0.6666666666666666 0.0
16.0 0.6666666666666666 0.0
0.0 1.0 0.0
0.8 1.0 0.0
1.6 1.0 0.0
2.4000000000000004 1.0 0.0
3.2 1.0 0.0
4.0 1.0 0.0
4.800000000000001 1.0 0.0
5.6000000000000005 1.0 0.0
6.4 1.0 0.0
7.2 1.0 0.0
8.0 1.0 0.0
8.8 1.0 0.0
9.600000000000001 1.0 0.0
10.4 1.0 0.0
11.200000000000001 1.0 0.0
12.0 1.0 0.0
12.8 1.0 0.0
13.600000000000001 1.0 0.0
14.4 1.0 0.0
15.200000000000001 1.0 0.0
16.0 1.0 0.0
0.0 1.3333333333333333 0.0
0.8 1.3333333333333333 0.0
1.6 1.3333333333333333 0.0
2.4000000000000004 1.3333333333333333 0.0
3.2 1.3333333333333333 0.0
4.0 1.3333333333333333 0.0
4.800000000000001 1.3333333333333333 0.0
5.6000000000000005 1.3333333333333333 0.0
6.4 1.3333333333333333 0.0
7.2 1.3333333333333333 0.0
8.0 1.3333333333333333 0.0
8.8 1.3333333333333333 0.0
9.600000000000001 1.3333333333333333 0.0
10.4 1.3333333333333333 0.0
11.200000000000001 1.3333333333333333 0.0
12.0 1.3333333333333333 0.0
12.8 1.3333333333333333 0.0
13.600000000000001 1.3333333333333333 0.0
14.4 1.3333333333333333 0.0
15.200000000000001 1.3333333333333333 0.0
16.0 1.3333333333333333 0.0
0.0 1.6666666666666665 0.0
0.8 1.6666666666666665 0.0
1.6 1.6666666666666665 0.0
2.4000000000000004 1.6666666666666665 0.0
3.2 1.6666666666666665 0.0
4.0 1.6666666666666665 0.0
4.800000000000001 1.6666666666666665 0.0
5.6000000000000005 1.6666666666666665 0.0
6.4 1.6666666666666665 0.0
7.2 1.6666666666666665 0.0
8.0 1.6666666666666665 0.0
8.8 1.6666666666666665 0.0
9.600000000000001 1.6666666666666665 0.0
10.4 1.6666666666666665 0.0
11.200000000000001 1.6666666666666665 0.0
12.0 1.6666666666666665 0.0
12.8 1.6666666666666665 0.0
13.600000000000001 1.6666666666666665 0.0
14.4 1.6666666666666665 0.0
15.200000000000001 1.6666666666666665 0.0
16.0 1.6666666666666665 0.0
0.0 2.0 0.0
0.8 2.0 0.0
1.6 2.0 0.0
2.4000000000000004 2.0 0.0
3.2 2.0 0.0
4.0 2.0 0.0
4.800000000000001 2.0 0.0
5.6000000000000005 2.0 0.0
6.4 2.0 0.0
7.2 2.0 0.0
8.0 2.0 0.0
8.8 2.0 0.0
9.600000000000001 2.0 0.0
10.4 2.0 0.0
11.200000000000001 2.0 0.0
12.0 2.0 0.0
12.8 2.0 0.0
13.600000000000001 2.0 0.0
14.4 2.0 0.0
15.200000000000001 2.0 0.0
16.0 2.0 0.0
0.0 0.0 1.6666666666666667
0.8 0.0 1.6666666666666667
1.6 0.0 1.6666666666666667
2.4000000000000004 0.0 1.6666666666666667
3.2 0.0 1.6666666666666667
4.0 0.0 1.6666666666666667
4.800000000000001 0.0 1.6666666666666667
5.6000000000000005 0.0 1.6666666666666667
6.4 0.0 1.6666666666666667
7.2 0.0 1.6666666666666667
8.0 0.0 1.6666666666666667
8.8 0.0 1.6666666666666667
9.600000000000001 0.0 1.6666666666666667
10.4 0.0 1.6666666666666667
11.200000000000001 0.0 1.6666666666666667
12.0 0.0 1.6666666666666667
12.8 0.0 1.6666666666666667
13.600000000000001 0.0 1.6666666666666667
14.4 0.0 1.6666666666666667
15.200000000000001 0.0 1.6666666666666667
16.0 0.0 1.6666666666666667
0.0 0.3333333333333333 1.6666666666666667
0.8 0.3333333333333333 1.6666666666666667
1.6 0.3333333333333333 1.6666666666666667
2.4000000000000004 0.3333333333333333 1.6666666666666667
3.2 0.3333333333333333 1.6666666666666667
4.0 0.3333333333333333 1.6666666666666667
4.800000000000001 0.3333333333333333 1.6666666666666667
5.6000000000000005 0.3333333333333333 1.6666666666666667
6.4 0.3333333333333333 1.6666666666666667
7.2 0.3333333333333333 1.6666666666666667
8.0 0.3333333333333333 1.6666666666666667
8.8 0.3333333333333333 1.6666666666666667
9.600000000000001 0.3333333333333333 1.6666666666666667
10.4 0.3333333333333333 1.6666666666666667
11.200000000000001 0.3333333333333333 1.6666666666666667
12.0 0.3333333333333333 1.6666666666666667
12.8 0.3333333333333333 1.6666666666666667
13.600000000000001 0.3333333333333333 1.6666666666666667
14.4 0.3333333333333333 1.6666666666666667
15.200000000000001 0.3333333333333333 1.6666666666666667
16.0 0.3333333333333333 1.6666666666666667
0.0 0.6666666666666666 1.6666666666666667
0.8 0.6666666666666666 1.6666666666666667
1.6 0.6666666666666666 1.6666666666666667
2.4000000000000004 0.6666666666666666 1.6666666666666667
3.2 0.6666666666666666 1.6666666666666667
4.0 0.6666666666666666 1.6666666666666667
4.800000000000001 0.6666666666666666 1.6666666666666667
5.6000000000000005 0.6666666666666666 1.6666666666666667
6.4 0.6666666666666666 1.6666666666666667
7.2 0.6666666666666666 1.6666666666666667
8.0 0.6666666666666666 1.6666666666666667
8.8 0.6666666666666666 1.6666666666666667
9.600000000000001 0.6666666666666666 1.6666666666666667
10.4 0.6666666666666666 1.6666666666666667
11.200000000000001 0.6666666666666666 1.6666666666666667
12.0 0.6666666666666666 1.6666666666666667
12.8 0.6666666666666666 1.6666666666666667
13.600000000000001 0.6666666666666666 1.6666666666666667
14.4 0.6666666666666666 1.6666666666666667
15.200000000000001 0.6666666666666666 1.6666666666666667
16.0 0.6666666666666666 1.6666666666666667
0.0 1.0 1.6666666666666667
0.8 1.0 1.6666666666666667
1.6 1.0 1.6666666666666667
2.4000000000000004 1.0 1.6666666666666667
3.2 1.0 1.6666666666666667
4.0 1.0 1.6666666666666667
4.800000000000001 1.0 1.6666666666666667
5.6000000000000005 1.0 1.6666666666666667
6.4 1.0 1.6666666666666667
7.2 1.0 1.6666666666666667
8.0 1.0 1.6666666666666667
8.8 1.0 1.6666666666666667
9.600000000000001 1.0 1.6666666666666667
10.4 1.0 1.6666666666666667
11.200000000000001 1.0 1.6666666666666667
12.0 1.0 1.6666666666666667
12.8 1.0 1.6666666666666667
13.600000000000001 1.0 1.6666666666666667
14.4 1.0 1.6666666666666667
15.200000000000001 1.0 1.6666666666666667
16.0 1.0 1.6666666666666667
0.0 1.3333333333333333 1.6666666666666667
0.8 1.3333333333333333 1.6666666666666667
1.6 1.3333333333333333 1.6666666666666667
2.4000000000000004 1.3333333333333333 1.6666666666666667
3.2 1.3333333333333333 1.6666666666666667
4.0 1.3333333333333333 1.6666666666666667
4.800000000000001 1.3333333333333333 1.6666666666666667
5.6000000000000005 1.3333333333333333 1.6666666666666667
6.4 1.3333333333333333 1.6666666666666667
7.2 1.3333333333333333 1.6666666666666667
8.0 1.3333333333333333 1.6666666666666667
8.8 1.3333333333333333 1.6666666666666667
9.600000000000001 1.3333333333333333 1.6666666666666667
10.4 1.3333333333333333 1.6666666666666667
11.200000000000001 1.3333333333333333 1.6666666666666667
12.0 1.3333333333333333 1.6666666666666667
12.8 1.3333333333333333 1.6666666666666667
13.600000000000001 1.3333333333333333 1.6666666666666667
14.4 1.3333333333333333 1.6666666666666667
15.200000000000001 1.3333333333333333 1.6666666666666667
16.0 1.3333333333333333 1.6666666666666667
0.0 1.6666666666666665 1.6666666666666667
0.8 1.6666666666666665 1.6666666666666667
1.6 1.6666666666666665 1.6666666666666667
2.4000000000000004 1.6666666666666665 1.6666666666666667
3.2 1.6666666666666665 1.6666666666666667
4.0 1.6666666666666665 1.6666666666666667
4.800000000000001 1.6666666666666665 1.6666666666666667
5.6000000000000005 1.6666666666666665 1.6666666666666667
6.4 1.6666666666666665 1.6666666666666667
7.2 1.6666666666666665 1.6666666666666667
8.0 1.6666666666666665 1.6666666666666667
8.8 1.6666666666666665 1.6666666666666667
9.600000000000001 1.6666666666666665 1.6666666666666667
10.4 1.6666666666666665 1.6666666666666667
11.200000000000001 1.6666666666666665 1.6666666666666667
12.0 1.6666666666666665 1.6666666666666667
12.8 1.6666666666666665 1.6666666666666667
13.600000000000001 1.6666666666666665 1.6666666666666667
14.4 1.6666666666666665 1.6666666666666667
15.200000000000001 1.6666666666666665 1.6666666666666667
16.0 1.6666666666666665 1.6666666666666667
0.0 2.0 1.6666666666666667
0.8 2.0 1.6666666666666667
1.6 2.0 1.6666666666666667
2.4000000000000004 2.0 1.6666666666666667
3.2 2.0 1.6666666666666667
4.0 2.0 1.6666666666666667
4.800000000000001 2.0 1.6666666666666667
5.6000000000000005 2.0 1.6666666666666667
6.4 2.0 1.6666666666666667
7.2 2.0 1.6666666666666667
8.0 2.0 1.6666666666666667
8.8 2.0 1.6666666666666667
9.600000000000001 2.0 1.6666666666666667
10.4 2.0 1.6666666666666667
11.200000000000001 2.0 1.6666666666666667
12.0 2.0 1.6666666666666667
12.8 2.0 1.6666666666666667
13.600000000000001 2.0 1.6666666666666667
14.4 2.0 1.6666666666666667
15.200000000000001 2.0 1.6666666666666667
16.0 2.0 1.6666666666666667
0.0 0.0 3.3333333333333335
0.8 0.0 3.3333333333333335
1.6 0.0 3.3333333333333335
2.4000000000000004 0.0 3.3333333333333335
[...]
POINT_DATA 1029
VECTORS Disp float
0.0 0.0 0.0
0.01097575514240906 -0.39799724536714337 0.009526539419859807
0.026430362585024157 -0.7499859567864228 0.020512634950426885
0.04780525710583513 -1.0890382777943288 0.029285595633229536
0.07822306208387142 -1.4059619109748505 0.03723515214848906
0.11811039563637621 -1.693284762817513 0.043807808445801476
0.16730261808468544 -1.943111744317389 0.04873016539443091
0.2255021540947424 -2.1478079799051977 0.051652538676600385
0.29191364427005095 -2.29993070086193 0.05233016162338122
0.3645612767219876 -2.393125440821723 0.0511634697400907
0.4401698728594225 -2.4241792012037027 0.050107562764543735
0.5158053400906003 -2.3935801489241655 0.05120554127968294
0.5885388282262908 -2.300850722357608 0.052429063655206436
0.6551115926948412 -2.149212681678335 0.05184091523983093
0.7135776168176103 -1.9450243304924175 0.049064214572634955
0.7631886998469071 -1.695720282428452 0.04437771265637459
0.8037134271580211 -1.4089062313643337 0.03816872966111734
0.8350811433499672 -1.0924117763845302 0.030803225764129152
0.8578395745935351 -0.7536330077961125 0.02275203687760247
0.8756806342744505 -0.40162434411560755 0.01352625390396145
0.892384134772002 0.0 -7.722825254725955e-05
0.1562039699671606 -0.016995545004457078 -0.005001903241994733
0.16294578826149003 -0.3962305249653389 0.004990569297458341
0.168380931191728 -0.7523822058662113 0.01299444730595001
0.18238764872275062 -1.0918532313491598 0.019777933772837066
0.20214809555496466 -1.4100108799508555 0.025455406138457308
0.22823858031899802 -1.6984159938033274 0.030126930981023224
0.2605097473950816 -1.9493357402623406 0.033588734079786305
0.2987568034835343 -2.1550803623196835 0.03568124190102114
0.34245796796128725 -2.308113494597636 0.036294704306218735
0.39034168319051155 -2.4018377592552564 0.03568061811195474
0.44025178007272203 -2.4329215940352427 0.03502744367902077
0.4901902916699615 -2.402299949401681 0.035666137707451764
0.5381641101700574 -2.3090498780840445 0.0362782942698462
0.5820320434209677 -2.1565132546279155 0.03569134883526421
0.6205489136582834 -1.9512930387734937 0.03367685748287152
0.65323269975694 -1.7009198957434222 0.030376796392238045
0.6799347962868267 -1.413055469991181 0.026002851310808192
0.7005757689161096 -1.0953707663188887 0.020804166025475353
0.715857824991643 -0.7562359763021341 0.014855018710715645
0.7231115039484087 -0.40014481592421447 0.007710824877275239
0.7308280873017879 -0.017935517330885137 -0.0020172525028230256
0.3036692497990005 -0.029508634231008492 -0.008174016473167426
0.30714561262391016 -0.39563760411215654 -0.0004423406907942168
0.307752181923689 -0.752925558880287 0.005271767452807547
0.31318696665316387 -1.0935537631820043 0.00948402686465321
0.3225214370016612 -1.4123332217507205 0.012706990063655325
0.3350803932686878 -1.7014234741054537 0.015166908828044168
0.35084680796601947 -1.9529937334520926 0.016878900291279034
0.3697423204581403 -2.15939172407443 0.017808021494289703
0.39162773399000733 -2.3129884342272478 0.017936516853237876
0.4157483426855806 -2.4068259910383953 0.017308612434702293
0.4403167238898094 -2.437381058456063 0.016600725537750636
0.46491406536737756 -2.407296268517905 0.017237675129100342
0.48912594649051105 -2.313942228780565 0.017804777780580365
0.5111782176692465 -2.1608538399800485 0.017639548603234502
0.5303385591314629 -1.9549959350482584 0.016719371670769867
0.5465000580472287 -1.7039934916930488 0.015096289386830788
0.5596267770856085 -1.4154725561262351 0.012855199547004377
0.5697522576929337 -1.0971980118421645 0.010056774854330638
0.5762442220083941 -0.7569470881804071 0.006557609203269797
0.5777150876419126 -0.3994138437061658 0.0017255769214008063
0.5816108491456253 -0.030956578563579334 -0.005136906514166255
0.44680015303133136 -0.03752793197671185 -0.011007051756747793
0.44773435372186055 -0.39573813066357766 -0.005726364525225722
0.44466957980213184 -0.7524739982441329 -0.002531806080884289
0.4423838435867585 -1.0938897569312704 -0.001043669078108122
0.44117133429613575 -1.4130311095710146 -0.0004216734680196981
0.44035499927379146 -1.702359400389509 -0.00028117095652315985
0.43980226376247744 -1.9541731197389034 -0.0004496770889253666
0.43959757892526263 -2.1608553136593445 -0.0008342514060710047
0.4400562261966868 -2.314727795291745 -0.0013485653848062575
0.4409850176333576 -2.4081566089985147 -0.0020939697492442615
0.4403746548280972 -2.437106845636609 -0.002993869777381841
0.43979337503759663 -2.4086353359927273 -0.002221780822856223
0.4408132906151165 -2.3156995796173807 -0.0015966101432767555
0.44143651049072063 -2.1623470761811925 -0.001183216685507764
0.4414880102775529 -1.9562196570342454 -0.000859728338005978
0.4413067524425041 -1.7049929689233845 -0.0006778477060424545
0.44100390622005886 -1.416257436448549 -0.0006753875013677977
0.4404725578061468 -1.0976496606493127 -0.0009445985234660983
0.43893450448806803 -0.7565442445289902 -0.0017961484340630503
0.4363312576176836 -0.3993639561587741 -0.004103455033863718
0.43749682324028827 -0.03935182947266288 -0.008446699050645478
0.58875845899998 -0.041820738780608005 -0.013918306170457173
0.5874476700572742 -0.3958986240408837 -0.010744018826253147
0.5809859687070619 -0.7513688727723751 -0.010206945149362063
0.5715570332893725 -1.092954184551268 -0.011511954968953199
0.5598816008654983 -1.4120785569578467 -0.013526872313746857
0.5456405262785888 -1.7012444703805423 -0.015713485713076132
0.5287922904155876 -1.952887807296177 -0.017771098315393502
0.509439353950781 -2.1594665621984195 -0.0194838080184822
0.4883249314158422 -2.3134132777719687 -0.02061359775580393
0.4663465347582721 -2.4060534707174632 -0.021108822469304588
0.44043414792760704 -2.431425248635912 -0.021916285797476023
0.4145511004008556 -2.4065409366432235 -0.02129444788626938
0.3926640598711111 -2.3144035022314857 -0.020980046190633112
0.3717125225246688 -2.1609882205637505 -0.020016900700557522
0.35260788671048937 -1.9549780304983129 -0.018437521301357666
0.3361075721821676 -1.7039380417496859 -0.01644467423588236
0.3223234633999016 -1.4153850558600134 -0.014195152631563505
0.31119462594757435 -1.0968011407719733 -0.011903091745367286
0.302274207995629 -0.7554479318678362 -0.010017468680846726
0.29607635330679943 -0.3994288156349328 -0.009680402438801784
0.29489189066224974 -0.043883454388972926 -0.01191757088567314
0.7316663256552006 -0.04342694217647913 -0.017053994900105496
0.7285853020310151 -0.3957328007645665 -0.01547849942223416
0.718857080769265 -0.7497099093749074 -0.017579572803006736
0.702532359471982 -1.0908386267492627 -0.021634982134796983
0.680356448558883 -1.4094607576515075 -0.026206828153172428
0.6525419083347775 -1.6980520087212394 -0.030619244651963102
0.6191810822199127 -1.9491448995713199 -0.034461608591083354
0.5805503597580668 -2.155140147693685 -0.03737466507414833
0.5369110517936994 -2.3089509385063156 -0.039006081358494996
0.4916706783100168 -2.4011119744338796 -0.038450893083336324
0.44050391622733104 -2.419306074001333 -0.03768908310847244
0.38936749533899645 -2.4016085747761413 -0.03869576846702218
0.34422095566259825 -2.309960255845572 -0.03949407551558239
0.3007466531004315 -2.1566922892389444 -0.03809729117490613
0.2623618056902566 -1.9512784299272201 -0.03539288120000069
0.22933296494160132 -1.700802574658551 -0.03169762455874443
0.2019232101335528 -1.4128362967535033 -0.027308128554977856
0.180165136295095 -1.0947484805534475 -0.022537987140708253
0.1641490229620624 -0.7537937401628088 -0.017949889333569363
0.1545297969597341 -0.3992157560330504 -0.014969927230794816
0.15148066313245948 -0.04560454257964211 -0.015594391519150031
0.8766999239614324 -0.04375449881643262 -0.02030644567948488
0.8732086682931383 -0.3951762012788385 -0.019939104570713385
0.8608495689169892 -0.7475289063739993 -0.024397982876955687
0.8373737893315794 -1.0875133397118169 -0.030960255105053475
0.8044352035346725 -1.405126160929333 -0.03783162997830848
0.7627601343245316 -1.6927233973469875 -0.04420781685212049
0.7124927789925686 -1.9428152039942044 -0.049560788798778545
0.6539478507162094 -2.147962396470495 -0.05339161539948737
0.5876737087481594 -2.3005055115171267 -0.05522848078009216
0.5139237127158589 -2.3942570455135086 -0.053271357524162524
0.44059434094407446 -2.4 -0.04527031605158714
0.36729781373367737 -2.3947635424472677 -0.05357733212873658
0.2936486760894401 -2.301535293311835 -0.05584202292092044
0.22754932305212933 -2.149546594753109 -0.05431053837740677
0.16925896989685837 -1.9449929741039442 -0.050767337551398437
0.11932286276061345 -1.6955288759670337 -0.04564860631958403
0.07802076592878462 -1.4085592561669857 -0.039386594864791714
0.04539186665996969 -1.091461786579618 -0.032398419897190917
0.022006042855289114 -0.7516046101859559 -0.025343629035008045
0.00951890231768939 -0.39862921219566383 -0.01996785152758584
0.005937069733799908 -0.04595643138716247 -0.01932441954755156
0.0 0.0 0.0
0.010266757516130199 -0.3761678976918882 0.0063410133404316945
0.026029766825977477 -0.7194105784529514 0.012111021057675787
0.04834332430150878 -1.0491121176291245 0.017473668842954957
0.07914312989640235 -1.3575179495322 0.02161219318689634
0.11874071214022769 -1.6377724294600706 0.024517215589385792
0.16699246464798875 -1.8828010619244153 0.025989454215772756
0.22366828453135892 -2.0858088842180127 0.025892748232964558
0.2885438146446521 -2.240147672189985 0.02429091505241815
0.3613534581684844 -2.338831212564701 0.02186709640632412
0.4402588119681522 -2.373757838901329 0.020465054024863514
0.519173331033382 -2.339009610453108 0.021881504813736803
0.5920117488413631 -2.2405039176745496 0.024330130539535144
0.6569399856079029 -2.0863416849193728 0.025979726348864585
0.713701488793643 -1.8835075005020112 0.026163986006670095
0.7620895793656218 -1.6386446613605683 0.024839541300040038
0.8019057379243518 -1.3585351423302967 0.022173598105861864
0.8330679657740927 -1.0502234949249798 0.018370725161159753
0.8559706710207025 -0.7205164023728203 0.013606708150058844
0.8728974726258206 -0.3772258851721557 0.008066397589865285
0.8859302911329191 0.0 0.007080415223353273
0.15178418643002362 -0.010936997560967313 0.0009346194786935961
0.15793002120772542 -0.3756204753209609 0.002907263151446629
0.16543529917449443 -0.7218392181091032 0.00756108585336086
0.1804223722751778 -1.05215187244517 0.011377364110738817
0.20092659546966557 -1.361695618609828 0.01433613700866817
0.2272987700944962 -1.643012442940218 0.016314325802778078
0.2594371965322249 -1.8891181585065706 0.017282697447347978
0.29717159110179686 -2.0931945858516965 0.017202235415853577
0.34026501468688364 -2.248628319926783 0.016163464611668878
0.38839033034231973 -2.348433112000534 0.014557086242918137
0.4402986663586497 -2.384058379815616 0.01353019989956561
0.49221601106398316 -2.348613456818394 0.014519932868465837
0.5403695201102267 -2.248988589731178 0.01609726140969618
0.5835141679394262 -2.093733821151235 0.017125811042489142
0.6213306419613897 -1.8898341642723469 0.017230386291881273
0.6535964356182256 -1.6438989562003352 0.016343918232214205
0.680168727839419 -1.3627349371135618 0.014532911358959488
0.7009909015317628 -1.053298667811368 0.01188236387271316
0.7165234341077424 -0.7230147532067976 0.008501939184812016
0.7249852647500291 -0.3768282539624757 0.004786138755736893
0.7316791254467414 -0.01112555738541522 0.005358570773841458
0.29754667240066524 -0.019257246591518 -0.0016826721917170219
0.3009539570440601 -0.37554690910235067 -0.00013126791971823298
0.3035701924840424 -0.7227403372287188 0.0029258607007116373
0.3104358290722878 -1.0540020363362625 0.005412728449894253
0.32068605764295954 -1.3641404158506936 0.007140146373158072
0.3338255375298729 -1.646102432261586 0.008182885210096302
0.34985356072454715 -1.8928345584816308 0.008584295428633747
0.3686235409563996 -2.097509830916232 0.00838122107833103
0.38987454768697655 -2.2535506637419065 0.007620756284938066
0.41366483641939633 -2.3542464134689363 0.0063371998947511065
0.44034173834058926 -2.3909510081638845 0.0052039645018339435
0.4670273914401507 -2.354429592932289 0.006249180623754472
0.4908448533346349 -2.2539166992481716 0.00745081207565945
0.5121444145869427 -2.098057969134711 0.008144623071769802
0.5309900319077645 -1.8935629900707807 0.008311896471456588
0.5471313515020226 -1.6470058627407047 0.007930464295336623
0.5604412844926702 -1.3652032292584468 0.007002005724474086
0.5709568800446876 -1.0551818042755166 0.005533246461656355
0.5782631749677605 -0.7239819826632944 0.0035181491977621646
0.5813398691143181 -0.37668269051708625 0.0014303088212706105
0.5849509763097089 -0.01943374338052225 0.0016587492920646118
0.44030308928546674 -0.024846316811894018 -0.00520980575932852
0.4414580326116126 -0.3758039156932011 -0.003471621636996128
0.4401943193133393 -0.7227006079058199 -0.0016968340872047117
0.4395166741074456 -1.0545463908280446 -0.0005677168859950581
0.43939097263221 -1.364959761679464 -7.799126933561035e-05
0.43931163563368825 -1.647123627901871 -1.4834538677631595e-05
0.4392274281678954 -1.8940637734449002 -0.00023511555530158698
0.43908364516043996 -2.098881205257695 -0.0006534874619741957
0.43856083191618617 -2.2550443076396953 -0.0012507403225557696
0.4381348237592213 -2.356606145707204 -0.002332813421702463
0.4403864069165392 -2.3953607332422764 -0.0038713710677463447
0.44264642368898716 -2.3567930044155028 -0.0024717952845891766
0.442246322415761 -2.2554177365143997 -0.001524577016217722
0.44176872759090524 -2.0994404706004204 -0.0010502184774451697
0.44169274092841404 -1.8948070261678511 -0.0007271327069589016
0.44170458803721635 -1.6480458253753791 -0.0005462177180483989
0.4417605901012494 -1.3660456550690094 -0.0005471032224625465
0.44183703183239165 -1.055759056104232 -0.0008079809246082384
0.4414324251585009 -0.7239543327867316 -0.0014441171405233147
0.4403795683942269 -0.3768320117409797 -0.002289065640510834
0.4416340627584056 -0.025031936341701626 -0.0026216782406255504
0.5820792335850776 -0.028029204253446464 -0.008849874751911286
0.5811907009243219 -0.37603410124746695 -0.006947244358964798
0.5763616840256947 -0.7219990952244464 -0.006296947061942474
0.5685811185417484 -1.0538613166218775 -0.0065221992177464765
0.5581318936379116 -1.3641540381466761 -0.007273577835331996
0.5448031768012577 -1.6461021019846034 -0.00819915006250002
0.5285812666662294 -1.892839742089504 -0.009049981287137956
0.5095929733472769 -2.0973944260072708 -0.009684256767133869
0.48751879584850943 -2.253134497747475 -0.010071019132149991
0.4625956796641395 -2.355375168821248 -0.010667305452049582
0.44043200935339843 -2.3980134540927587 -0.01276348565076147
0.41827647531691436 -2.355566552069761 -0.010858205654374212
0.39337804187063347 -2.253516937216559 -0.010450811471395328
0.3713457878970064 -2.097966997768809 -0.010244625926556873
0.3524174445173647 -1.8936001166143273 -0.009766967219502735
0.33627402481059815 -1.64704430429583 -0.009017443776537279
0.3230447320121836 -1.365262867721944 -0.008083657791458674
0.3127205729245781 -1.0550963618244777 -0.007132697275869682
0.30507192800589494 -0.7232414245606654 -0.006409304717640885
0.30031967768766765 -0.37697866232107485 -0.006168854038152255
0.29948105395498215 -0.02823098513804427 -0.006895019438003986
0.7243014570398063 -0.029399475983538207 -0.01218986462474083
0.7216868025847 -0.3759868611766267 -0.01033923883005586
0.7133957206182409 -0.7207141466854502 -0.010838134382918146
0.698693622919428 -1.0519984472456305 -0.012411994229517461
0.6779439358146733 -1.361693154706024 -0.01439867682641484
0.6513402403924169 -1.6430117176122596 -0.01628906927677712
0.6189890636630897 -1.8891037892299927 -0.01773723962928313
0.5810035746763116 -2.0930899925268034 -0.018495260245893846
0.5379875392349314 -2.2478760301895666 -0.01853920395404243
0.48830438925728353 -2.3498002439204657 -0.017961617609595134
0.44047783868145785 -2.399587277616374 -0.020186649372601496
0.39265921589245867 -2.349997052045654 -0.018206211823037572
0.3429998302686609 -2.248269210529478 -0.019028876761884753
0.3000230916305118 -2.0936782536731067 -0.019226155775506373
0.26209103231916636 -1.889883827506087 -0.018690503919121495
0.2298036272841828 -1.6439757561208184 -0.017412298525418424
0.2032660838665054 -1.3628233161108418 -0.015577122197875574
0.18256915565320578 -1.0532467326109876 -0.013432423773507401
0.16788333472760325 -0.7219413495748379 -0.011367811220794104
0.1595718982718947 -0.3768809551812265 -0.009987607859569625
0.156962443250208 -0.02960795194312996 -0.01078427300378983
0.8677613638053195 -0.02983715644311393 -0.01475384777613118
0.8642484766233984 -0.3755844607279549 -0.013513570486318915
0.8527105499582825 -0.7188197736244798 -0.015344917749848072
0.8308837162636376 -1.0488982355153187 -0.018324903999896898
0.7997712907419673 -1.3575056114443362 -0.021572946597831016
0.7599045946290133 -1.6377499790551995 -0.024420155939453105
0.7114176403330831 -1.8827899284276475 -0.02640768851749583
0.6544723490165941 -2.08563575183138 -0.027219895335414784
0.5897268815189812 -2.239860368193647 -0.026646892130024715
0.5193685988213013 -2.3385353730056506 -0.024555112087357042
0.4405221190934494 -2.4 -0.023615115943420938
0.3616834494964726 -2.3387385795561193 -0.02485585074225285
0.291348387844639 -2.240266192629031 -0.027251933815027867
0.22664057037397878 -2.0862423950677265 -0.02813117095361046
0.16974454168382824 -1.8835928025187574 -0.027613869547784855
0.12131178043546675 -1.6387386082603201 -0.025875926182821304
0.08148856569060174 -1.3586566904977009 -0.023165300714982132
0.050375568220762036 -1.0501537911496115 -0.019826372808602024
0.028463893040874003 -0.7200298473893886 -0.016381527821632352
0.01678811976172395 -0.3764484700010649 -0.013630662814084364
0.013216198448778475 -0.03003657805290201 -0.013785800029618352
0.0 0.0 0.0
0.014253010748272387 -0.3665891342224108 0.0027397846892355964
0.029977516700332267 -0.7037547087414633 0.005141351499976349
0.051772252310595054 -1.0285758268600103 0.0074182608556726
0.0816843487181325 -1.3332527226402415 0.009031794880537106
0.11983836418300237 -1.6112209175316137 0.009850114414764275
0.1661234890586379 -1.8558801806940124 0.009808548745187018
0.22060901703839753 -2.0608898562693443 0.008921416159933589
0.28399576660053866 -2.219720442331528 0.007375895818667027
0.35763380541256445 -2.324113420935176 0.005712106837366425
0.44028089821508287 -2.362085616481652 0.004915167592505644
0.5229173338527838 -2.3240711207431017 0.005713640401209279
0.5965217791568677 -2.219622838018028 0.007385334131591976
0.6598468592271522 -2.060711499824577 0.00895260527213429
0.7142330639492502 -1.8555849714105022 0.009884486618451939
0.7603649526517113 -1.6107672546293443 0.010003482789927909
0.7982871119383476 -1.3326043486783175 0.009304491995804711
0.8278450981910913 -1.0277223177972536 0.007854265442479694
0.8491122512754664 -0.7027298415176413 0.00584933090801884
0.8637649053604582 -0.3653660890581448 0.003937656506114456
0.8749393658989807 0.0 0.004017633621867706
0.15243426670405252 -0.009457975493965428 9.905998229182054e-05
0.1587272754173869 -0.36653141233475434 0.0014060149039451274
0.16704414791084013 -0.7062816097463223 0.0032442079705190165
0.18194951073935403 -1.0317839517080931 0.004901881957225099
0.20205422632092898 -1.33761363925947 0.006096954368719369
0.22765384846915246 -1.6166989759331047 0.006705230140212666
0.2586708654063467 -1.8625330099260096 0.006717518041418605
0.2951452097136401 -2.068803509938347 0.006176788268978881
0.33741508913198015 -2.2291106922376165 0.005221783559461143
0.38610126186612337 -2.3352284874974454 0.004174605164986203
0.4402748434654382 -2.3743214174699445 0.0036464098054652177
0.49443522712134885 -2.335182545334306 0.004143958371881866
0.5430803165930084 -2.229004855118625 0.005165066092618472
0.5852766615263241 -2.06861025089917 0.006104467396801632
0.6216369312926953 -1.862212650719157 0.0066481566376982515
0.6524869007202642 -1.6162041128207325 0.006668119724322628
0.6778467619773657 -1.3368993161084692 0.006132723987068435