# vtk DataFile Version 3.0
Some data
ASCII
DATASET UNSTRUCTURED_GRID
POINTS 1029 float
0.0 0.0 0.0
0.8 0.0 0.0
1.6 0.0 0.0
2.4000000000000004 0.0 0.0
3.2 0.0 0.0
4.0 0.0 0.0
4.800000000000001 0.0 0.0
5.6000000000000005 0.0 0.0
6.4 0.0 0.0
7.2 0.0 0.0
8.0 0.0 0.0
8.8 0.0 0.0
9.600000000000001 0.0 0.0
10.4 0.0 0.0
11.200000000000001 0.0 0.0
12.0 0.0 0.0
12.8 0.0 0.0
13.600000000000001 0.0 0.0
14.4 0.0 0.0
15.200000000000001 0.0 0.0
16.0 0.0 0.0
0.0 0.3333333333333333 0.0
0.8 0.3333333333333333 0.0
1.6 0.3333333333333333 0.0
2.4000000000000004 0.3333333333333333 0.0
3.2 0.3333333333333333 0.0
4.0 0.3333333333333333 0.0
4.800000000000001 0.3333333333333333 0.0
5.6000000000000005 0.3333333333333333 0.0
6.4 0.3333333333333333 0.0
7.2 0.3333333333333333 0.0
8.0 0.3333333333333333 0.0
8.8 0.3333333333333333 0.0
9.600000000000001 0.3333333333333333 0.0
10.4 0.3333333333333333 0.0
11.200000000000001 0.3333333333333333 0.0
12.0 0.3333333333333333 0.0
12.8 0.3333333333333333 0.0
13.600000000000001 0.3333333333333333 0.0
14.4 0.3333333333333333 0.0
15.200000000000001 0.3333333333333333 0.0
16.0 0.3333333333333333 0.0
0.0 0.6666666666666666 0.0
0.8 0.6666666666666666 0.0
1.6 0.6666666666666666 0.0
2.4000000000000004 0.6666666666666666 0.0
3.2 0.6666666666666666 0.0
4.0 0.6666666666666666 0.0
4.800000000000001 0.6666666666666666 0.0
5.6000000000000005 0.6666666666666666 0.0
6.4 0.6666666666666666 0.0
7.2 0.6666666666666666 0.0
8.0 0.6666666666666666 0.0
8.8 0.6666666666666666 0.0
9.600000000000001 0.6666666666666666 0.0
10.4 0.6666666666666666 0.0
11.200000000000001 0.6666666666666666 0.0
12.0 0.6666666666666666 0.0
12.8 0.6666666666666666 0.0
13.600000000000001 0.6666666666666666 0.0
14.4 0.6666666666666666 0.0
15.200000000000001 0.6666666666666666 0.0
16.0 0.6666666666666666 0.0
0.0 1.0 0.0
0.8 1.0 0.0
1.6 1.0 0.0
2.4000000000000004 1.0 0.0
3.2 1.0 0.0
4.0 1.0 0.0
4.800000000000001 1.0 0.0
5.6000000000000005 1.0 0.0
6.4 1.0 0.0
7.2 1.0 0.0
8.0 1.0 0.0
8.8 1.0 0.0
9.600000000000001 1.0 0.0
10.4 1.0 0.0
11.200000000000001 1.0 0.0
12.0 1.0 0.0
12.8 1.0 0.0
13.600000000000001 1.0 0.0
14.4 1.0 0.0
15.200000000000001 1.0 0.0
16.0 1.0 0.0
0.0 1.3333333333333333 0.0
0.8 1.3333333333333333 0.0
1.6 1.3333333333333333 0.0
2.4000000000000004 1.3333333333333333 0.0
3.2 1.3333333333333333 0.0
4.0 1.3333333333333333 0.0
4.800000000000001 1.3333333333333333 0.0
5.6000000000000005 1.3333333333333333 0.0
6.4 1.3333333333333333 0.0
7.2 1.3333333333333333 0.0
8.0 1.3333333333333333 0.0
8.8 1.3333333333333333 0.0
9.600000000000001 1.3333333333333333 0.0
10.4 1.3333333333333333 0.0
11.200000000000001 1.3333333333333333 0.0
12.0 1.3333333333333333 0.0
12.8 1.3333333333333333 0.0
13.600000000000001 1.3333333333333333 0.0
14.4 1.3333333333333333 0.0
15.200000000000001 1.3333333333333333 0.0
16.0 1.3333333333333333 0.0
0.0 1.6666666666666665 0.0
0.8 1.6666666666666665 0.0
1.6 1.6666666666666665 0.0
2.4000000000000004 1.6666666666666665 0.0
3.2 1.6666666666666665 0.0
4.0 1.6666666666666665 0.0
4.800000000000001 1.6666666666666665 0.0
5.6000000000000005 1.6666666666666665 0.0
6.4 1.6666666666666665 0.0
7.2 1.6666666666666665 0.0
8.0 1.6666666666666665 0.0
8.8 1.6666666666666665 0.0
9.600000000000001 1.6666666666666665 0.0
10.4 1.6666666666666665 0.0
11.200000000000001 1.6666666666666665 0.0
12.0 1.6666666666666665 0.0
12.8 1.6666666666666665 0.0
13.600000000000001 1.6666666666666665 0.0
14.4 1.6666666666666665 0.0
15.200000000000001 1.6666666666666665 0.0
16.0 1.6666666666666665 0.0
0.0 2.0 0.0
0.8 2.0 0.0
1.6 2.0 0.0
2.4000000000000004 2.0 0.0
3.2 2.0 0.0
4.0 2.0 0.0
4.800000000000001 2.0 0.0
5.6000000000000005 2.0 0.0
6.4 2.0 0.0
7.2 2.0 0.0
8.0 2.0 0.0
8.8 2.0 0.0
9.600000000000001 2.0 0.0
10.4 2.0 0.0
11.200000000000001 2.0 0.0
12.0 2.0 0.0
12.8 2.0 0.0
13.600000000000001 2.0 0.0
14.4 2.0 0.0
15.200000000000001 2.0 0.0
16.0 2.0 0.0
0.0 0.0 1.6666666666666667
0.8 0.0 1.6666666666666667
1.6 0.0 1.6666666666666667
2.4000000000000004 0.0 1.6666666666666667
3.2 0.0 1.6666666666666667
4.0 0.0 1.6666666666666667
4.800000000000001 0.0 1.6666666666666667
5.6000000000000005 0.0 1.6666666666666667
6.4 0.0 1.6666666666666667
7.2 0.0 1.6666666666666667
8.0 0.0 1.6666666666666667
8.8 0.0 1.6666666666666667
9.600000000000001 0.0 1.6666666666666667
10.4 0.0 1.6666666666666667
11.200000000000001 0.0 1.6666666666666667
12.0 0.0 1.6666666666666667
12.8 0.0 1.6666666666666667
13.600000000000001 0.0 1.6666666666666667
14.4 0.0 1.6666666666666667
15.200000000000001 0.0 1.6666666666666667
16.0 0.0 1.6666666666666667
0.0 0.3333333333333333 1.6666666666666667
0.8 0.3333333333333333 1.6666666666666667
1.6 0.3333333333333333 1.6666666666666667
2.4000000000000004 0.3333333333333333 1.6666666666666667
3.2 0.3333333333333333 1.6666666666666667
4.0 0.3333333333333333 1.6666666666666667
4.800000000000001 0.3333333333333333 1.6666666666666667
5.6000000000000005 0.3333333333333333 1.6666666666666667
6.4 0.3333333333333333 1.6666666666666667
7.2 0.3333333333333333 1.6666666666666667
8.0 0.3333333333333333 1.6666666666666667
8.8 0.3333333333333333 1.6666666666666667
9.600000000000001 0.3333333333333333 1.6666666666666667
10.4 0.3333333333333333 1.6666666666666667
11.200000000000001 0.3333333333333333 1.6666666666666667
12.0 0.3333333333333333 1.6666666666666667
12.8 0.3333333333333333 1.6666666666666667
13.600000000000001 0.3333333333333333 1.6666666666666667
14.4 0.3333333333333333 1.6666666666666667
15.200000000000001 0.3333333333333333 1.6666666666666667
16.0 0.3333333333333333 1.6666666666666667
0.0 0.6666666666666666 1.6666666666666667
0.8 0.6666666666666666 1.6666666666666667
1.6 0.6666666666666666 1.6666666666666667
2.4000000000000004 0.6666666666666666 1.6666666666666667
3.2 0.6666666666666666 1.6666666666666667
4.0 0.6666666666666666 1.6666666666666667
4.800000000000001 0.6666666666666666 1.6666666666666667
5.6000000000000005 0.6666666666666666 1.6666666666666667
6.4 0.6666666666666666 1.6666666666666667
7.2 0.6666666666666666 1.6666666666666667
8.0 0.6666666666666666 1.6666666666666667
8.8 0.6666666666666666 1.6666666666666667
9.600000000000001 0.6666666666666666 1.6666666666666667
10.4 0.6666666666666666 1.6666666666666667
11.200000000000001 0.6666666666666666 1.6666666666666667
12.0 0.6666666666666666 1.6666666666666667
12.8 0.6666666666666666 1.6666666666666667
13.600000000000001 0.6666666666666666 1.6666666666666667
14.4 0.6666666666666666 1.6666666666666667
15.200000000000001 0.6666666666666666 1.6666666666666667
16.0 0.6666666666666666 1.6666666666666667
0.0 1.0 1.6666666666666667
0.8 1.0 1.6666666666666667
1.6 1.0 1.6666666666666667
2.4000000000000004 1.0 1.6666666666666667
3.2 1.0 1.6666666666666667
4.0 1.0 1.6666666666666667
4.800000000000001 1.0 1.6666666666666667
5.6000000000000005 1.0 1.6666666666666667
6.4 1.0 1.6666666666666667
7.2 1.0 1.6666666666666667
8.0 1.0 1.6666666666666667
8.8 1.0 1.6666666666666667
9.600000000000001 1.0 1.6666666666666667
10.4 1.0 1.6666666666666667
11.200000000000001 1.0 1.6666666666666667
12.0 1.0 1.6666666666666667
12.8 1.0 1.6666666666666667
13.600000000000001 1.0 1.6666666666666667
14.4 1.0 1.6666666666666667
15.200000000000001 1.0 1.6666666666666667
16.0 1.0 1.6666666666666667
0.0 1.3333333333333333 1.6666666666666667
0.8 1.3333333333333333 1.6666666666666667
1.6 1.3333333333333333 1.6666666666666667
2.4000000000000004 1.3333333333333333 1.6666666666666667
3.2 1.3333333333333333 1.6666666666666667
4.0 1.3333333333333333 1.6666666666666667
4.800000000000001 1.3333333333333333 1.6666666666666667
5.6000000000000005 1.3333333333333333 1.6666666666666667
6.4 1.3333333333333333 1.6666666666666667
7.2 1.3333333333333333 1.6666666666666667
8.0 1.3333333333333333 1.6666666666666667
8.8 1.3333333333333333 1.6666666666666667
9.600000000000001 1.3333333333333333 1.6666666666666667
10.4 1.3333333333333333 1.6666666666666667
11.200000000000001 1.3333333333333333 1.6666666666666667
12.0 1.3333333333333333 1.6666666666666667
12.8 1.3333333333333333 1.6666666666666667
13.600000000000001 1.3333333333333333 1.6666666666666667
14.4 1.3333333333333333 1.6666666666666667
15.200000000000001 1.3333333333333333 1.6666666666666667
16.0 1.3333333333333333 1.6666666666666667
0.0 1.6666666666666665 1.6666666666666667
0.8 1.6666666666666665 1.6666666666666667
1.6 1.6666666666666665 1.6666666666666667
2.4000000000000004 1.6666666666666665 1.6666666666666667
3.2 1.6666666666666665 1.6666666666666667
4.0 1.6666666666666665 1.6666666666666667
4.800000000000001 1.6666666666666665 1.6666666666666667
5.6000000000000005 1.6666666666666665 1.6666666666666667
6.4 1.6666666666666665 1.6666666666666667
7.2 1.6666666666666665 1.6666666666666667
8.0 1.6666666666666665 1.6666666666666667
8.8 1.6666666666666665 1.6666666666666667
9.600000000000001 1.6666666666666665 1.6666666666666667
10.4 1.6666666666666665 1.6666666666666667
11.200000000000001 1.6666666666666665 1.6666666666666667
12.0 1.6666666666666665 1.6666666666666667
12.8 1.6666666666666665 1.6666666666666667
13.600000000000001 1.6666666666666665 1.6666666666666667
14.4 1.6666666666666665 1.6666666666666667
15.200000000000001 1.6666666666666665 1.6666666666666667
16.0 1.6666666666666665 1.6666666666666667
0.0 2.0 1.6666666666666667
0.8 2.0 1.6666666666666667
1.6 2.0 1.6666666666666667
2.4000000000000004 2.0 1.6666666666666667
3.2 2.0 1.6666666666666667
4.0 2.0 1.6666666666666667
4.800000000000001 2.0 1.6666666666666667
5.6000000000000005 2.0 1.6666666666666667
6.4 2.0 1.6666666666666667
7.2 2.0 1.6666666666666667
8.0 2.0 1.6666666666666667
8.8 2.0 1.6666666666666667
9.600000000000001 2.0 1.6666666666666667
10.4 2.0 1.6666666666666667
11.200000000000001 2.0 1.6666666666666667
12.0 2.0 1.6666666666666667
12.8 2.0 1.6666666666666667
13.600000000000001 2.0 1.6666666666666667
14.4 2.0 1.6666666666666667
15.200000000000001 2.0 1.6666666666666667
16.0 2.0 1.6666666666666667
0.0 0.0 3.3333333333333335
0.8 0.0 3.3333333333333335
1.6 0.0 3.3333333333333335
2.4000000000000004 0.0 3.3333333333333335
[...]
POINT_DATA 1029
VECTORS Disp float
0.0 0.0 0.0
0.005487877571208625 -0.1989986226835637 0.004763269709933433
0.013215181292516339 -0.37499297839319756 0.010256317475218785
0.023902628552922064 -0.544519138897147 0.014642797816622036
0.03911153104194089 -0.7029809554874016 0.018617576074252705
0.05905519781819246 -0.8466423814087276 0.021903904222909144
0.08365130904234509 -0.9715558721586572 0.024365082697224285
0.11275107704737203 -1.0739039899525664 0.025826269338311558
0.14595682213502753 -1.1499653504309366 0.026165080811706768
0.1822806383610003 -1.1965627204108331 0.025581734870064262
0.22008493642972402 -1.2120896006018183 0.025053781382294422
0.25790267004531997 -1.1967900744620386 0.025602770639868506
0.2942694141131657 -1.1504253611787438 0.026214531827631764
0.32755579634743726 -1.0746063408390987 0.025920457619947504
0.3567888084088191 -0.9725121652461296 0.024532107286351964
0.38159434992346064 -0.8478601412141404 0.022188856328223514
0.40185671357900987 -0.7044531156820873 0.019084364830600303
0.41754057167497716 -0.546205888192197 0.015401612882112519
0.4289197872967569 -0.3768165038980079 0.011376018438856548
0.4378403171372099 -0.20081217205777266 0.006763126952042282
0.4461920673859821 0.0 -3.861412620488386e-05
0.07810198498358138 -0.008497772502227167 -0.002500951620996101
0.08147289413074645 -0.19811526248266192 0.0024952846487322207
0.0841904655958664 -0.3761911029330918 0.006497223652980265
0.0911938243613777 -0.5459266156745638 0.009888966886425696
0.10107404777748509 -0.7050054399754035 0.012727703069237347
0.11411929015950126 -0.849207996901635 0.015063465490521715
0.1302548736975426 -0.9746678701311353 0.016794367039904667
0.14937840174176886 -1.077540181159808 0.01784062095052461
0.17122898398064584 -1.1540567472987897 0.0181473521531275
0.19517084159526055 -1.2009188796275998 0.017840309055998534
0.22012589003637106 -1.2164607970175882 0.01751372183953416
0.2450951458349955 -1.2011499747007972 0.01783306885375426
0.26908205508504424 -1.1545249390419614 0.0181391471349552
0.29101602171049673 -1.0782566273138883 0.017845674417666952
0.3102744568291527 -0.9756465193866686 0.016838428741473864
0.3266163498784772 -0.8504599478716248 0.01518839819616031
0.3399673981434164 -0.7065277349955106 0.013001425655449901
0.3502878844580536 -0.5476853831593765 0.010402083012788959
0.35792891249581793 -0.3781179881510175 0.0074275093554148925
0.3615557519741987 -0.2000724079620764 0.0038554124387007657
0.3654140436508863 -0.00896775866543804 -0.0010086262513422561
0.15183462489950042 -0.014754317115502062 -0.004087008236582491
0.15357280631195536 -0.19781880205607025 -0.00022117034539406532
0.1538760909618452 -0.37646277944012996 0.0026358837264090075
0.1565934833265828 -0.5467768815909851 0.004742013432334026
0.16126071850083154 -0.7061666108753365 0.0063534950318372
0.16754019663434488 -0.8507117370526964 0.007583454414033796
0.17542340398301126 -0.9764968667260112 0.008439450145653686
0.18487116022907155 -1.0796958620371808 0.008904010747161645
0.19581386699500578 -1.1564942171135963 0.008968258426638447
0.20787417134279274 -1.2034129955191712 0.008654306217373654
0.2201583619449118 -1.2186905292280046 0.008300362768900062
0.2324570326837003 -1.2036481342589094 0.008618837564580064
0.24456297324526696 -1.156971114390224 0.00890238889032553
0.2555891088346343 -1.0804269199899537 0.008819774301655266
0.26516927956574043 -0.9774979675240494 0.00835968583542679
0.27325002902362105 -0.8519967458464367 0.007548144693461184
0.27981338854280957 -0.7077362780630372 0.0064275997735524365
0.28487612884647046 -0.5485990059210142 0.0050283874272199
0.28812211100419916 -0.37847354409015294 0.003278804601694346
0.2888575438209583 -0.19970692185305244 0.0008627884607651996
0.2908054245728135 -0.01547828928178183 -0.0025684532570127584
0.22340007651566457 -0.018763965988353167 -0.00550352587837296
0.22386717686092875 -0.197869065331781 -0.002863182262609743
0.22233478990106492 -0.37623699912205244 -0.0012659030404367148
0.2211919217933789 -0.5469448784656179 -0.0005218345390464225
0.22058566714806754 -0.7065155547854841 -0.000210836733999408
0.22017749963689573 -0.851179700194725 -0.0001405854782482935
0.21990113188124005 -0.9770865598694187 -0.0002248385444464211
0.21979878946263323 -1.0804276568296398 -0.00041712570301610043
0.22002811309834452 -1.1573638976458425 -0.0006742826923816947
0.22049250881667934 -1.2040783044992294 -0.0010469848745982453
0.22018732741405317 -1.2185534228182842 -0.001496934888665558
0.2198966875188065 -1.2043176679963192 -0.0011108904113964035
0.22040664530756698 -1.1578497898086328 -0.0007983050716008757
0.2207182552453682 -1.0811735380905234 -0.0005916083427122273
0.22074400513878395 -0.9781098285170419 -0.0004298641689568178
0.22065337622125925 -0.8524964844616064 -0.00033892385297103347
0.22050195311003706 -0.7081287182241947 -0.0003376937506296204
0.22023627890308142 -0.5488248303245878 -0.00047229926167511937
0.2194672522440421 -0.3782721222644444 -0.0008980742169694539
0.21816562880885026 -0.19968197807935661 -0.0020517275168652842
0.21874841162015246 -0.019675914736321545 -0.004223349525251251
0.2943792294999868 -0.02091036939030096 -0.006959153085227784
0.29372383502863403 -0.19794931202043398 -0.005372009413123478
0.29049298435352855 -0.37568443638617344 -0.005103472574675427
0.28577851664468473 -0.5464770922756157 -0.005755977484468338
0.279940800432748 -0.7060392784788992 -0.006763436156862203
0.2728202631392943 -0.8506222351902422 -0.007856742856523767
0.2643961452077951 -0.9764439036480559 -0.00888554915767849
0.2547196769753929 -1.0797332810991764 -0.00974190400921957
0.24416246570792222 -1.1567066388859526 -0.010306798877878224
0.2331732673791351 -1.2030267353587099 -0.010554411234626821
0.2202170739638059 -1.2157126243179401 -0.010958142898711741
0.20727555020043303 -1.2032704683215703 -0.010647223943101365
0.1963320299355608 -1.1572017511156838 -0.010490023095276637
0.18585626126233937 -1.080494110281803 -0.010008450350233594
0.17630394335525137 -0.977489015249076 -0.00921876065062884
0.16805378609109198 -0.8519690208747563 -0.008222337117886502
0.16116173169996043 -0.7076925279299278 -0.0070975763157237965
0.1555973129737991 -0.548400570385918 -0.0059515458726223155
0.15113710399782795 -0.3777239659338669 -0.005008734340358775
0.1480381766534144 -0.19971440781743616 -0.004840201219332567
0.14744594533113983 -0.021941727194475364 -0.005958785442763913
0.3658331628275955 -0.02171347108823647 -0.008526997450052197
0.3642926510155033 -0.19786640038227518 -0.007739249711114036
0.35942854038462874 -0.37485495468744 -0.00878978640149761
0.3512661797359877 -0.5454193133746129 -0.010817491067389842
0.3401782242794387 -0.7047303788257306 -0.01310341407657428
0.3262709541673875 -0.8490260043605918 -0.015309622325966513
0.3095905411099577 -0.9745724497856283 -0.01723080429552162
0.29027517987903495 -1.0775700738468081 -0.018687332537050065
0.268455525896852 -1.1544754692531258 -0.019503040679221227
0.24583533915500771 -1.2005559872169171 -0.019225446541641093
0.220251958113665 -1.2096530370006593 -0.018844541554210024
0.19468374766949886 -1.2008042873880296 -0.019347884233476234
0.1721104778312986 -1.154980127922726 -0.019747037757749195
0.1503733265502173 -1.0783461446193987 -0.019048645587404697
0.13118090284513328 -0.9756392149635298 -0.017696440599946357
0.11466648247080889 -0.85040128732919 -0.01584881227931303
0.10096160506678907 -0.7064181483766712 -0.013654064277427073
0.09008256814756375 -0.5473742402766545 -0.011268993570289503
0.08207451148105058 -0.3768968700813545 -0.008974944666717524
0.07726489847988835 -0.19960787801649435 -0.007484963615327592
0.07574033156625164 -0.02280227128980969 -0.007797195759501118
0.4383499619807093 -0.021877249408213256 -0.01015322283974203
0.4366043341465631 -0.19758810063941112 -0.009969552285353761
0.43042478445848875 -0.3737644531869869 -0.012198991438472435
0.4186868946657849 -0.5437566698558897 -0.01548012755251795
0.40221760176733223 -0.7025630804646429 -0.018915814989142132
0.3813800671622634 -0.8463616986734674 -0.022103908426044355
0.35624638949628434 -0.9714076019970707 -0.024780394399367838
0.32697392535810615 -1.0739811982352152 -0.026695807699716616
0.29383685437408297 -1.1502527557585334 -0.027614240390016698
0.2569618563579335 -1.1971285227567283 -0.026635678762052303
0.22029717047203376 -1.2000000000000002 -0.022635158025768074
0.18364890686682836 -1.1973817712235928 -0.026788666064332414
0.14682433804471362 -1.1507676466558554 -0.027921011460415604
0.11377466152606247 -1.0747732973764823 -0.027155269188651618
0.08462948494843182 -0.9724964870518911 -0.025383668775641903
0.05966143138031511 -0.8477644379834312 -0.02282430315972786
0.03901038296440784 -0.7042796280834127 -0.01969329743232964
0.022695933330006756 -0.5457308932897404 -0.016199209948527374
0.011003021427671272 -0.3758023050929278 -0.01267181451743473
0.004759451158873436 -0.1993146060978017 -0.009983925763721683
0.0029685348669294858 -0.022978215693569806 -0.009662209773700834
0.0 0.0 0.0
0.005133378758065662 -0.1880839488459352 0.0031705066702180464
0.013014883412988572 -0.3597052892264606 0.0060555105288422045
0.024171662150752896 -0.5245560588145424 0.008736834421483805
0.03957156494819847 -0.6787589747660789 0.01080609659345591
0.05937035607010943 -0.8188862147300121 0.01225860779470189
0.08349623232398877 -0.9414005309621875 0.012994727107896157
0.11183414226567367 -1.042904442108988 0.01294637411649408
0.14427190732232228 -1.1200738360949756 0.012145457526223619
0.18067672908424326 -1.169415606282335 0.010933548203180097
0.22012940598408345 -1.1868789194506408 0.01023252701245379
0.25958666551670084 -1.1695048052265187 0.010940752406893834
0.2960058744206915 -1.1202519588372302 0.012165065269796264
0.32846999280395917 -1.0431708424596304 0.012989863174464553
0.3568507443968239 -0.9417537502509434 0.013081993003370557
0.38104478968280836 -0.8193223306802224 0.01241977065006036
0.40095286896216875 -0.6792675711650855 0.011086799052975544
0.416533982887033 -0.5251117474624383 0.009185362580630118
0.4279853355103332 -0.36025820118636936 0.006803354075085628
0.4364487363128888 -0.18861294258605327 0.004033198794994814
0.44296514556643485 0.0 0.003540207611742806
0.07589209321500984 -0.005468498780482444 0.00046730973934709695
0.07896501060386045 -0.18781023766047167 0.001453631575725603
0.08271764958724492 -0.3609196090545364 0.0037805429266848977
0.09021118613758641 -0.5260759362225655 0.0056886820553760185
0.10046329773482936 -0.680847809304892 0.007168068504342437
0.1136493850472438 -0.8215062214700871 0.008157162901399076
0.12971859826610727 -0.9445590792532643 0.008641348723686057
0.14858579555089316 -1.0465972929258303 0.008601117707940911
0.17013250734343846 -1.1243141599633726 0.008081732305851528
0.19419516517115956 -1.1742165560002513 0.007278543121479957
0.22014933317932842 -1.1920291899077862 0.006765099949807997
0.24610800553199735 -1.174306728409162 0.007259966434260777
0.2701847600551195 -1.1244942948655423 0.00804863070487952
0.2917570839697176 -1.046866910575561 0.008562905521279507
0.31066532098069605 -0.9449170821361089 0.00861519314597947
0.32679821780911017 -0.8219494781001068 0.008171959116150297
0.3400843639197042 -0.6813674685567193 0.007266455679527567
0.35049545076587263 -0.5266493339056305 0.005941181936409413
0.3582617170538587 -0.3615073766033574 0.004250969592464075
0.36249263237500134 -0.1884141269812138 0.0023930693779318037
0.36583956272335577 -0.005562778692704786 0.0026792853869875605
0.14877333620032848 -0.00962862329575668 -0.0008413360958579456
0.15047697852202577 -0.18777345455116687 -6.563395985665309e-05
0.15178509624201714 -0.361370168614344 0.0014629303503605564
0.15521791453613998 -0.5270010181681121 0.002706364224954058
0.1603430288214756 -0.6820702079253248 0.0035700731865883273
0.16691276876493222 -0.8230512161307714 0.004091442605059578
0.17492678036226833 -0.9464172792407937 0.004292147714331107
0.1843117704781947 -1.0487549154581002 0.004190610539181962
0.19493727384348464 -1.1267753318709361 0.0038103781424888164
0.20683241820969628 -1.1771232067344544 0.0031685999473988562
0.22017086917029505 -1.1954755040819196 0.0026019822509451493
0.23351369572007785 -1.1772147964661108 0.0031245903119078546
0.24542242666731967 -1.1269583496240367 0.003725406037863799
0.25607220729347274 -1.0490289845672998 0.004072311535922777
0.26549501595388175 -0.9467814950353255 0.004155948235770329
0.27356567575100954 -0.8235029313702915 0.003965232147714826
0.2802206422463317 -0.6826016146291621 0.003501002862287911
0.2854784400223385 -0.5275909021377043 0.0027666232308834137
0.28913158748387385 -0.36199099133160656 0.0017590745989409869
0.2906699345571522 -0.1883413452585187 0.00071515441069993
0.2924754881548466 -0.009716871690256305 0.0008293746461005865
0.22015154464272732 -0.012423158405943952 -0.0026049028796635977
0.22072901630580022 -0.18790195784659186 -0.0017358108184953572
0.22009715965666365 -0.361350303952895 -0.0008484170435974074
0.21975833705371703 -0.5272731954140033 -0.00028385844298996026
0.21969548631610034 -0.6824798808397102 -3.899563465755567e-05
0.21965581781683927 -0.8235618139509117 -7.417269325916693e-06
0.2196137140839431 -0.9470318867224269 -0.0001175577776347663
0.21954182258021526 -1.0494406026288312 -0.00032674373096822865
0.2192804159580889 -1.1275221538198315 -0.0006253701612559144
0.21906741187960663 -1.1783030728535906 -0.0011664067108253875
0.22019320345826732 -1.1976803666211204 -0.0019356855338431306
0.22132321184449366 -1.1783965022077176 -0.0012358976422613978
0.22112316120787953 -1.1277088682571497 -0.0007622885080720426
0.22088436379545126 -1.0497202353001547 -0.0005251092386815394
0.22084637046420555 -0.9474035130838612 -0.00036356635343409
0.22085229401860704 -0.8240229126876275 -0.00027310885897447747
0.2208802950506233 -0.6830228275344412 -0.00027355161117751254
0.2209185159161947 -0.5278795280520625 -0.00040399046224637704
0.22071621257924934 -0.36197716639332533 -0.0007220585701997535
0.220189784197113 -0.1884160058704657 -0.0011445328201893288
0.220817031379202 -0.012515968170844495 -0.00131083912024277
0.29103961679253065 -0.014014602126720033 -0.0044249373759549125
0.2905953504621529 -0.18801705062372429 -0.0034736221794794925
0.2881808420128399 -0.3609995476122086 -0.003148473530965996
0.28429055927086777 -0.5269306583109207 -0.0032610996088652576
0.27906594681894964 -0.6820770190733166 -0.003636788917654829
0.27240158840062334 -0.8230510509922787 -0.0040995750312356125
0.26429063333311026 -0.9464198710447296 -0.00452499064355091
0.2547964866736346 -1.0486972130036174 -0.004842128383545955
0.24375939792425028 -1.126567248873723 -0.005035509566050755
0.2312978398320642 -1.1776875844106114 -0.005333652725996715
0.22021600467669353 -1.1990067270463671 -0.006381742825348882
0.2091382376584538 -1.1777832760348454 -0.005429102827151799
0.19668902093531207 -1.1267584686082297 -0.005225405735658425
0.1856728939484992 -1.0489834988843465 -0.005122312963234128
0.17620872225867948 -0.9468000583071008 -0.00488348360970248
0.16813701240529802 -0.823522152147854 -0.004508721888215573
0.16152236600609282 -0.6826314338609091 -0.004041828895672657
0.1563602864622919 -0.5275481809121859 -0.0035663486378746025
0.1525359640029521 -0.36162071228029263 -0.0032046523587564695
0.15015983884383924 -0.1884893311605129 -0.0030844270190085107
0.1497405269774965 -0.01411549256901519 -0.003447509718930278
0.36215072851989333 -0.014699737991765686 -0.00609493231236964
0.3608434012923401 -0.18799343058830437 -0.0051696194150249565
0.3566978603091112 -0.36035707334271044 -0.005419067191453591
0.3493468114597062 -0.5259992236227966 -0.0062059971147502705
0.3389719679073301 -0.6808465773529897 -0.007199338413195637
0.3256701201962032 -0.8215058588061075 -0.00814453463837254
0.30949453183154085 -0.9445518946149726 -0.008868619814621679
0.2905017873381525 -1.0465449962633857 -0.009247630122923243
0.26899376961746235 -1.1239380150947682 -0.009269601976994297
0.24415219462863474 -1.1749001219602193 -0.008980808804767919
0.22023891934072076 -1.1997936388081798 -0.010093324686267498
0.1963296079462217 -1.1749985260227933 -0.009103105911481457
0.1714999151343214 -1.1241346052646874 -0.009514438380900186
0.15001154581524886 -1.0468391268364974 -0.009613077887705547
0.1310455161595794 -0.9449419137529794 -0.009345251959508485
0.11490181364209061 -0.8219878780603482 -0.008706149262652991
0.10163304193325585 -0.6814116580553589 -0.007788561098878004
0.09128457782661033 -0.5266233663054413 -0.006716211886690781
0.08394166736381142 -0.36097067478737843 -0.005683905610331122
0.07978594913595875 -0.18844047759058918 -0.004993803929715691
0.07848122162511584 -0.014803975971557738 -0.005392136501821729
0.4338806819026479 -0.014918578221553576 -0.007376923888064747
0.4321242383116886 -0.18779223036396853 -0.006756785243156549
0.4263552749791303 -0.359409886812225 -0.00767245887491829
0.415441858131809 -0.5244491177576416 -0.009162451999939739
0.39988564537097643 -0.678752805722146 -0.010786473298902931
0.3799522973145014 -0.8188749895275768 -0.012210077969709023
0.35570882016653815 -0.9413949642138003 -0.013203844258725964
0.32723617450829556 -1.0428178759156737 -0.013609947667680932
0.2948634407594874 -1.1199301840968108 -0.013323446064982578
0.2596842994106462 -1.169267686502811 -0.012277556043646656
0.22026105954671293 -1.2000000000000002 -0.011807557971676114
0.18084172474821905 -1.1693692897780235 -0.012427925371086938
0.1456741939223062 -1.1201330963144653 -0.0136259669074684
0.11332028518697959 -1.0431211975338068 -0.014065585476754402
0.0848722708419088 -0.9417964012593162 -0.013806934773836415
0.06065589021773348 -0.8193693041300988 -0.012937963091351484
0.04074428284530615 -0.6793283452487906 -0.011582650357428191
0.025187784110392672 -0.5250768955747549 -0.009913186404235483
0.014231946520452588 -0.3600149236946548 -0.00819076391074817
0.008394059880880069 -0.18822423500050825 -0.00681533140697177
0.006608099224408015 -0.015018289026443766 -0.006892900014734966
0.0 0.0 0.0
0.007126505374133326 -0.18329456711119702 0.0013698923446197732
0.014988758350161226 -0.3518773543707193 0.0025706757499921445
0.02588612615529004 -0.5142879134299893 0.003709130427842448
0.040842174359056085 -0.6666263613201028 0.004515897440276102
0.05991918209148827 -0.8056104587657898 0.004925057207391226
0.08306174452930501 -0.9279400903469952 0.004904274372603706
0.11030450851918604 -1.0304449281346684 0.004460708079979314
0.14199788330025942 -1.109860221165763 0.0036879479093491563
0.17881690270627676 -1.1620567104675856 0.002856053418703882
0.22014044910754077 -1.1810428082408162 0.002457583796276491
0.26145866692639264 -1.1620355603715309 0.0028568202006313157
0.29826088957843466 -1.1098114190089823 0.003692667065823787
0.32992342961357435 -1.0303557499122475 0.004476302636097805
0.35711653197462206 -0.9277924857052068 0.00494224330926138
0.38018247632584795 -0.8053836273146185 0.005001741395004405
0.3991435559691592 -0.666302174339112 0.004652245997948175
0.4139225490955278 -0.5138611588985852 0.003927132721290989
0.4245561256377112 -0.35136492075879017 0.0029246654540659492
0.4318824526802045 -0.18268304452905423 0.001968828253119132
0.4374696829494641 0.0 0.002008816810999735
0.07621713335202185 -0.004728987746981567 4.952999114625853e-05
0.07936363770868812 -0.18326570616736862 0.0007030074519746671
0.08352207395541342 -0.3531408048731486 0.0016221039852638433
0.09097475536966847 -0.5158919758540293 0.0024509409786192173
0.10102711316045428 -0.6688068196297178 0.0030484771843683903
0.1138269242345649 -0.8083494879665357 0.0033526150701171926
0.12933543270316156 -0.9312665049629958 0.003358759020721889
0.14757260485680837 -1.0344017549691693 0.003088394134505092
0.16870754456598078 -1.1145553461188074 0.0026108917797496665
0.19305063093305472 -1.1676142437487216 0.0020873025825157857
0.2201374217327149 -1.187160708734963 0.001823204902758784
0.24721761356067137 -1.1675912726671345 0.002071979185969747