# vtk DataFile Version 3.0
Some data
ASCII
DATASET UNSTRUCTURED_GRID
POINTS 1029 float
0.0 0.0 0.0
0.8 0.0 0.0
1.6 0.0 0.0
2.4000000000000004 0.0 0.0
3.2 0.0 0.0
4.0 0.0 0.0
4.800000000000001 0.0 0.0
5.6000000000000005 0.0 0.0
6.4 0.0 0.0
7.2 0.0 0.0
8.0 0.0 0.0
8.8 0.0 0.0
9.600000000000001 0.0 0.0
10.4 0.0 0.0
11.200000000000001 0.0 0.0
12.0 0.0 0.0
12.8 0.0 0.0
13.600000000000001 0.0 0.0
14.4 0.0 0.0
15.200000000000001 0.0 0.0
16.0 0.0 0.0
0.0 0.3333333333333333 0.0
0.8 0.3333333333333333 0.0
1.6 0.3333333333333333 0.0
2.4000000000000004 0.3333333333333333 0.0
3.2 0.3333333333333333 0.0
4.0 0.3333333333333333 0.0
4.800000000000001 0.3333333333333333 0.0
5.6000000000000005 0.3333333333333333 0.0
6.4 0.3333333333333333 0.0
7.2 0.3333333333333333 0.0
8.0 0.3333333333333333 0.0
8.8 0.3333333333333333 0.0
9.600000000000001 0.3333333333333333 0.0
10.4 0.3333333333333333 0.0
11.200000000000001 0.3333333333333333 0.0
12.0 0.3333333333333333 0.0
12.8 0.3333333333333333 0.0
13.600000000000001 0.3333333333333333 0.0
14.4 0.3333333333333333 0.0
15.200000000000001 0.3333333333333333 0.0
16.0 0.3333333333333333 0.0
0.0 0.6666666666666666 0.0
0.8 0.6666666666666666 0.0
1.6 0.6666666666666666 0.0
2.4000000000000004 0.6666666666666666 0.0
3.2 0.6666666666666666 0.0
4.0 0.6666666666666666 0.0
4.800000000000001 0.6666666666666666 0.0
5.6000000000000005 0.6666666666666666 0.0
6.4 0.6666666666666666 0.0
7.2 0.6666666666666666 0.0
8.0 0.6666666666666666 0.0
8.8 0.6666666666666666 0.0
9.600000000000001 0.6666666666666666 0.0
10.4 0.6666666666666666 0.0
11.200000000000001 0.6666666666666666 0.0
12.0 0.6666666666666666 0.0
12.8 0.6666666666666666 0.0
13.600000000000001 0.6666666666666666 0.0
14.4 0.6666666666666666 0.0
15.200000000000001 0.6666666666666666 0.0
16.0 0.6666666666666666 0.0
0.0 1.0 0.0
0.8 1.0 0.0
1.6 1.0 0.0
2.4000000000000004 1.0 0.0
3.2 1.0 0.0
4.0 1.0 0.0
4.800000000000001 1.0 0.0
5.6000000000000005 1.0 0.0
6.4 1.0 0.0
7.2 1.0 0.0
8.0 1.0 0.0
8.8 1.0 0.0
9.600000000000001 1.0 0.0
10.4 1.0 0.0
11.200000000000001 1.0 0.0
12.0 1.0 0.0
12.8 1.0 0.0
13.600000000000001 1.0 0.0
14.4 1.0 0.0
15.200000000000001 1.0 0.0
16.0 1.0 0.0
0.0 1.3333333333333333 0.0
0.8 1.3333333333333333 0.0
1.6 1.3333333333333333 0.0
2.4000000000000004 1.3333333333333333 0.0
3.2 1.3333333333333333 0.0
4.0 1.3333333333333333 0.0
4.800000000000001 1.3333333333333333 0.0
5.6000000000000005 1.3333333333333333 0.0
6.4 1.3333333333333333 0.0
7.2 1.3333333333333333 0.0
8.0 1.3333333333333333 0.0
8.8 1.3333333333333333 0.0
9.600000000000001 1.3333333333333333 0.0
10.4 1.3333333333333333 0.0
11.200000000000001 1.3333333333333333 0.0
12.0 1.3333333333333333 0.0
12.8 1.3333333333333333 0.0
13.600000000000001 1.3333333333333333 0.0
14.4 1.3333333333333333 0.0
15.200000000000001 1.3333333333333333 0.0
16.0 1.3333333333333333 0.0
0.0 1.6666666666666665 0.0
0.8 1.6666666666666665 0.0
1.6 1.6666666666666665 0.0
2.4000000000000004 1.6666666666666665 0.0
3.2 1.6666666666666665 0.0
4.0 1.6666666666666665 0.0
4.800000000000001 1.6666666666666665 0.0
5.6000000000000005 1.6666666666666665 0.0
6.4 1.6666666666666665 0.0
7.2 1.6666666666666665 0.0
8.0 1.6666666666666665 0.0
8.8 1.6666666666666665 0.0
9.600000000000001 1.6666666666666665 0.0
10.4 1.6666666666666665 0.0
11.200000000000001 1.6666666666666665 0.0
12.0 1.6666666666666665 0.0
12.8 1.6666666666666665 0.0
13.600000000000001 1.6666666666666665 0.0
14.4 1.6666666666666665 0.0
15.200000000000001 1.6666666666666665 0.0
16.0 1.6666666666666665 0.0
0.0 2.0 0.0
0.8 2.0 0.0
1.6 2.0 0.0
2.4000000000000004 2.0 0.0
3.2 2.0 0.0
4.0 2.0 0.0
4.800000000000001 2.0 0.0
5.6000000000000005 2.0 0.0
6.4 2.0 0.0
7.2 2.0 0.0
8.0 2.0 0.0
8.8 2.0 0.0
9.600000000000001 2.0 0.0
10.4 2.0 0.0
11.200000000000001 2.0 0.0
12.0 2.0 0.0
12.8 2.0 0.0
13.600000000000001 2.0 0.0
14.4 2.0 0.0
15.200000000000001 2.0 0.0
16.0 2.0 0.0
0.0 0.0 1.6666666666666667
0.8 0.0 1.6666666666666667
1.6 0.0 1.6666666666666667
2.4000000000000004 0.0 1.6666666666666667
3.2 0.0 1.6666666666666667
4.0 0.0 1.6666666666666667
4.800000000000001 0.0 1.6666666666666667
5.6000000000000005 0.0 1.6666666666666667
6.4 0.0 1.6666666666666667
7.2 0.0 1.6666666666666667
8.0 0.0 1.6666666666666667
8.8 0.0 1.6666666666666667
9.600000000000001 0.0 1.6666666666666667
10.4 0.0 1.6666666666666667
11.200000000000001 0.0 1.6666666666666667
12.0 0.0 1.6666666666666667
12.8 0.0 1.6666666666666667
13.600000000000001 0.0 1.6666666666666667
14.4 0.0 1.6666666666666667
15.200000000000001 0.0 1.6666666666666667
16.0 0.0 1.6666666666666667
0.0 0.3333333333333333 1.6666666666666667
0.8 0.3333333333333333 1.6666666666666667
1.6 0.3333333333333333 1.6666666666666667
2.4000000000000004 0.3333333333333333 1.6666666666666667
3.2 0.3333333333333333 1.6666666666666667
4.0 0.3333333333333333 1.6666666666666667
4.800000000000001 0.3333333333333333 1.6666666666666667
5.6000000000000005 0.3333333333333333 1.6666666666666667
6.4 0.3333333333333333 1.6666666666666667
7.2 0.3333333333333333 1.6666666666666667
8.0 0.3333333333333333 1.6666666666666667
8.8 0.3333333333333333 1.6666666666666667
9.600000000000001 0.3333333333333333 1.6666666666666667
10.4 0.3333333333333333 1.6666666666666667
11.200000000000001 0.3333333333333333 1.6666666666666667
12.0 0.3333333333333333 1.6666666666666667
12.8 0.3333333333333333 1.6666666666666667
13.600000000000001 0.3333333333333333 1.6666666666666667
14.4 0.3333333333333333 1.6666666666666667
15.200000000000001 0.3333333333333333 1.6666666666666667
16.0 0.3333333333333333 1.6666666666666667
0.0 0.6666666666666666 1.6666666666666667
0.8 0.6666666666666666 1.6666666666666667
1.6 0.6666666666666666 1.6666666666666667
2.4000000000000004 0.6666666666666666 1.6666666666666667
3.2 0.6666666666666666 1.6666666666666667
4.0 0.6666666666666666 1.6666666666666667
4.800000000000001 0.6666666666666666 1.6666666666666667
5.6000000000000005 0.6666666666666666 1.6666666666666667
6.4 0.6666666666666666 1.6666666666666667
7.2 0.6666666666666666 1.6666666666666667
8.0 0.6666666666666666 1.6666666666666667
8.8 0.6666666666666666 1.6666666666666667
9.600000000000001 0.6666666666666666 1.6666666666666667
10.4 0.6666666666666666 1.6666666666666667
11.200000000000001 0.6666666666666666 1.6666666666666667
12.0 0.6666666666666666 1.6666666666666667
12.8 0.6666666666666666 1.6666666666666667
13.600000000000001 0.6666666666666666 1.6666666666666667
14.4 0.6666666666666666 1.6666666666666667
15.200000000000001 0.6666666666666666 1.6666666666666667
16.0 0.6666666666666666 1.6666666666666667
0.0 1.0 1.6666666666666667
0.8 1.0 1.6666666666666667
1.6 1.0 1.6666666666666667
2.4000000000000004 1.0 1.6666666666666667
3.2 1.0 1.6666666666666667
4.0 1.0 1.6666666666666667
4.800000000000001 1.0 1.6666666666666667
5.6000000000000005 1.0 1.6666666666666667
6.4 1.0 1.6666666666666667
7.2 1.0 1.6666666666666667
8.0 1.0 1.6666666666666667
8.8 1.0 1.6666666666666667
9.600000000000001 1.0 1.6666666666666667
10.4 1.0 1.6666666666666667
11.200000000000001 1.0 1.6666666666666667
12.0 1.0 1.6666666666666667
12.8 1.0 1.6666666666666667
13.600000000000001 1.0 1.6666666666666667
14.4 1.0 1.6666666666666667
15.200000000000001 1.0 1.6666666666666667
16.0 1.0 1.6666666666666667
0.0 1.3333333333333333 1.6666666666666667
0.8 1.3333333333333333 1.6666666666666667
1.6 1.3333333333333333 1.6666666666666667
2.4000000000000004 1.3333333333333333 1.6666666666666667
3.2 1.3333333333333333 1.6666666666666667
4.0 1.3333333333333333 1.6666666666666667
4.800000000000001 1.3333333333333333 1.6666666666666667
5.6000000000000005 1.3333333333333333 1.6666666666666667
6.4 1.3333333333333333 1.6666666666666667
7.2 1.3333333333333333 1.6666666666666667
8.0 1.3333333333333333 1.6666666666666667
8.8 1.3333333333333333 1.6666666666666667
9.600000000000001 1.3333333333333333 1.6666666666666667
10.4 1.3333333333333333 1.6666666666666667
11.200000000000001 1.3333333333333333 1.6666666666666667
12.0 1.3333333333333333 1.6666666666666667
12.8 1.3333333333333333 1.6666666666666667
13.600000000000001 1.3333333333333333 1.6666666666666667
14.4 1.3333333333333333 1.6666666666666667
15.200000000000001 1.3333333333333333 1.6666666666666667
16.0 1.3333333333333333 1.6666666666666667
0.0 1.6666666666666665 1.6666666666666667
0.8 1.6666666666666665 1.6666666666666667
1.6 1.6666666666666665 1.6666666666666667
2.4000000000000004 1.6666666666666665 1.6666666666666667
3.2 1.6666666666666665 1.6666666666666667
4.0 1.6666666666666665 1.6666666666666667
4.800000000000001 1.6666666666666665 1.6666666666666667
5.6000000000000005 1.6666666666666665 1.6666666666666667
6.4 1.6666666666666665 1.6666666666666667
7.2 1.6666666666666665 1.6666666666666667
8.0 1.6666666666666665 1.6666666666666667
8.8 1.6666666666666665 1.6666666666666667
9.600000000000001 1.6666666666666665 1.6666666666666667
10.4 1.6666666666666665 1.6666666666666667
11.200000000000001 1.6666666666666665 1.6666666666666667
12.0 1.6666666666666665 1.6666666666666667
12.8 1.6666666666666665 1.6666666666666667
13.600000000000001 1.6666666666666665 1.6666666666666667
14.4 1.6666666666666665 1.6666666666666667
15.200000000000001 1.6666666666666665 1.6666666666666667
16.0 1.6666666666666665 1.6666666666666667
0.0 2.0 1.6666666666666667
0.8 2.0 1.6666666666666667
1.6 2.0 1.6666666666666667
2.4000000000000004 2.0 1.6666666666666667
3.2 2.0 1.6666666666666667
4.0 2.0 1.6666666666666667
4.800000000000001 2.0 1.6666666666666667
5.6000000000000005 2.0 1.6666666666666667
6.4 2.0 1.6666666666666667
7.2 2.0 1.6666666666666667
8.0 2.0 1.6666666666666667
8.8 2.0 1.6666666666666667
9.600000000000001 2.0 1.6666666666666667
10.4 2.0 1.6666666666666667
11.200000000000001 2.0 1.6666666666666667
12.0 2.0 1.6666666666666667
12.8 2.0 1.6666666666666667
13.600000000000001 2.0 1.6666666666666667
14.4 2.0 1.6666666666666667
15.200000000000001 2.0 1.6666666666666667
16.0 2.0 1.6666666666666667
0.0 0.0 3.3333333333333335
0.8 0.0 3.3333333333333335
1.6 0.0 3.3333333333333335
2.4000000000000004 0.0 3.3333333333333335
[...]
POINT_DATA 1029
VECTORS Disp float
0.0 0.0 0.0
0.0274393878559657 -0.9949931134179573 0.023816348549599964
0.06607590646250056 -1.8749648919662285 0.05128158737599028
0.11951314276452461 -2.722595694486028 0.07321398908296883
0.19555765520960375 -3.5149047774374362 0.09308788037111052
0.2952759890908788 -4.233211907044163 0.10951952111438945
0.4182565452116821 -4.857779360793942 0.12182541348595065
0.5637553852368415 -5.36951994976341 0.1291313466913415
0.7297841106750945 -5.749826752155176 0.13082540405823267
0.9114031918048648 -5.982813602054669 0.12790867434997388
1.1004246821483645 -6.0604480030096575 0.12526890691104436
1.289513350226231 -5.983950372311012 0.12801385319884678
1.471347070565443 -5.752126805894789 0.13107265913761604
1.6377789817368695 -5.373031704196761 0.12960228809914193
1.7839440420438395 -4.862560826232076 0.12266053643111112
1.9079717496171693 -4.239300706072256 0.11094428164044397
2.009283567895057 -3.5222655784118873 0.09542182415222174
2.087702858375001 -2.7310294409622293 0.07700806440966787
2.1445989364839786 -1.8840825194909376 0.056880092193257376
2.1892015856863267 -1.0040608602894356 0.03381563475906604
2.2309603369302553 0.0 -0.00019307063230098817
0.39050992491788195 -0.04248886251116109 -0.012504758105003181
0.40736447065370174 -0.9905763124134404 0.012476423243603457
0.42095232797928145 -1.8809555146657004 0.032486118264801384
0.455969121806838 -2.7296330783731086 0.04944483443199504
0.5053702388873698 -3.525027199877444 0.06363851534602283
0.5705964507974581 -4.246039984508706 0.0753173274524186
0.6512743684876758 -4.873339350656298 0.08397183519930149
0.7468920087088022 -5.387700905799632 0.08920310475235933
0.8561449199031783 -5.770283736494447 0.09073676076530217
0.975854207976204 -6.004594398138475 0.08920154527960346
1.1006294501816567 -6.082303985088541 0.08756860919722761
1.225475729174694 -6.005749873504784 0.08916534426824
1.345410275424923 -5.7726246952108875 0.09069573567418054
1.4550801085522358 -5.39128313657071 0.08922837208768108
1.5513722841455528 -4.878232596934765 0.08419214370666082
1.6330817493922472 -4.252299739359698 0.07594199098003106
1.6998369907170248 -3.532638674979005 0.06500712827639304
1.7514394222902832 -2.7384269157981285 0.052010415062989306
1.7896445624791613 -1.8905899407559965 0.03713754677601336
1.807778759871091 -1.0003620398109465 0.01927706219232975
1.8270702182545708 -0.04483879332727332 -0.005043131257998523
0.7591731244974933 -0.07377158557755045 -0.020435041182933874
0.767864031559765 -0.9890940102804893 -0.0011058517270266695
0.7693804548092071 -1.8823138972008846 0.01317941863194689
0.7829674166328936 -2.733884407955227 0.02371006716153144
0.8063035925041344 -3.530833054377108 0.03176747515900629
0.8377009831716979 -4.253558685264028 0.03791727206994718
0.8771170199150218 -4.882484333630662 0.04219725072800026
0.9243558011453142 -5.39847931018648 0.04452005373549785
0.979069334974979 -5.782471085568467 0.04484129213283038
1.0393708567139102 -6.017064977596341 0.04327153108644704
1.1007918097244187 -6.093452646140489 0.04150181384403858
1.162285163418276 -6.018240671295343 0.043094187822343935
1.2228148662261127 -5.784855571952198 0.04451194445097833
1.2779455441729637 -5.402134599951047 0.04409887150756875
1.3258463978285275 -4.887489837621692 0.041798429176355595
1.3662501451179716 -4.2599837292337845 0.037740723466453636
1.3990669427139502 -3.5386813903166527 0.03213799886682825
1.4243806442322802 -2.7429950296063237 0.02514193713508228
1.440610555020952 -1.8923677204517004 0.01639402300736535
1.444287719104755 -0.9985346092658216 0.004313942302621076
1.454027122864047 -0.07739144640905397 -0.012842266286370108
1.1170003825783397 -0.09381982994181512 -0.02751762939188188
1.119335884304661 -0.9893453266590475 -0.01431591131310606
1.111673949505339 -1.881184995610506 -0.006329515202282844
1.105959608966893 -2.7347243923284026 -0.00260917269537508
1.1029283357403399 -3.5325777739278394 -0.0010541836701929892
1.1008874981844676 -4.2558985009741415 -0.0007029273914892438
1.099505659406169 -4.885432799347662 -0.0011241927225375625
1.0989939473131216 -5.402138284148782 -0.0020856285154342807
1.100140565491691 -5.786819488229737 -0.0033714134623067287
1.1024625440833797 -6.020391522496639 -0.005234924373437336
1.100936637070173 -6.092767114091781 -0.007484674443802754
1.0994834375938731 -6.021588339982399 -0.005554452057571509
1.1020332265376667 -5.789248949044246 -0.003991525358698243
1.1035912762266862 -5.4058676904539045 -0.002958041714337351
1.103720025693777 -4.8905491425866865 -0.002149320845641774
1.103266881106152 -4.262482422309598 -0.0016946192657868848
1.1025097655500369 -3.540643591122426 -0.001688468754155272
1.1011813945152595 -2.7441241516241996 -0.0023614963094550794
1.0973362612200557 -1.8913606113231523 -0.004490371086002051
1.0908281440440928 -0.9984098903973447 -0.010258637585564103
1.0937420581006105 -0.09837957368178982 -0.021116747627583678
1.471896147499982 -0.104551846951559 -0.03479576542615298
1.4686191751432158 -0.9897465601023092 -0.026860047065674363
1.45246492176768 -1.8784221819311153 -0.025517362873477865
1.4288925832234465 -2.732385461378402 -0.0287798874224933
1.399704002163759 -3.5301963923949238 -0.03381718078451973
1.3641013156964639 -4.253111175951719 -0.03928371428288429
1.321980726038943 -4.882219518240843 -0.04442774578873096
1.2735983848769197 -5.398666405496478 -0.04870952004649825
1.2208123285395838 -5.783533194430325 -0.05153399438982801
1.1658663368956868 -6.015133676793987 -0.05277205617360901
1.1010853698189782 -6.078563121589991 -0.054790714494049104
1.0363777510020666 -6.016352341608574 -0.05323611971612904
0.9816601496776997 -5.78600875557951 -0.05245011547712568
0.9292813063115997 -5.402470551410327 -0.050042251752009
0.8815197167761306 -4.887445076246854 -0.04609380325407145
0.8402689304553039 -4.259845104375358 -0.041111685590445535
0.8058086584996177 -3.5384626396510934 -0.035487881579695436
0.777986564868776 -2.7420028519308417 -0.029757729364252816
0.7556855199888848 -1.888619829670263 -0.025043671702995464
0.7401908832667968 -0.9985720390877387 -0.02420100609793168
0.7372297266554163 -0.10970863597258208 -0.029793927215169123
1.8291658141380556 -0.1085673554412377 -0.042634987250270664
1.821463255077588 -0.9893320019115188 -0.038696248555625125
1.797142701923204 -1.8742747734374487 -0.04394893200759241
1.7563308986799926 -2.7270965668733966 -0.054087455337107765
1.7008911213972344 -3.523651894129061 -0.06551707038309415
1.6313547708369442 -4.245130021803443 -0.076548111630112
1.547952705549755 -4.872862248928692 -0.08615402147797753
1.4513758993951358 -5.387850369234657 -0.09343666268569696
1.342277629484218 -5.772377346266203 -0.09751520339659549
1.229176695775045 -6.00277993608501 -0.09612723270871507
1.101259790568327 -6.0482651850034514 -0.09422270777153988
0.9734187383474853 -6.004021436940866 -0.09673942116803072
0.8605523891564929 -5.774900639614704 -0.09873518878953202
0.7518666327510513 -5.391730723098336 -0.09524322793792564
0.6559045142255747 -4.878196074819137 -0.08848220300073516
0.5733324123538858 -4.252006436647524 -0.07924406139766035
0.5048080253337127 -3.5320907418848253 -0.06827032138828444
0.4504128407375139 -2.736871201384531 -0.0563449678526465
0.41037255740489126 -1.8844843504076845 -0.0448747233348345
0.3863244923990457 -0.9980393900830328 -0.03742481807793492
0.3787016578308507 -0.11401135644925943 -0.038985978798877205
2.1917498099036594 -0.10938624704112228 -0.05076611419871658
2.183021670732922 -0.9879405031971964 -0.049847761426820986
2.1521239222925392 -1.8688222659351803 -0.06099495719246258
2.093434473328999 -2.7187833492797644 -0.0774006377627517
2.0110880088367193 -3.5128154023236164 -0.09457907494593419
1.906900335811348 -4.231808493367778 -0.11051954213051372
1.7812319474814182 -4.857038009985898 -0.12390197199722797
1.6348696267904932 -5.369905991176666 -0.13347903849908851
1.4691842718703465 -5.75126377879323 -0.1380712019506347
1.284809281789588 -5.985642613784106 -0.13317839381080462
1.1014858523602333 -6.000000000000001 -0.11317579012932266
0.9182445343343173 -5.986908856118729 -0.13394333032233322
0.734121690223679 -5.753838233280359 -0.13960505730289763
0.5688733076303532 -5.373866486883731 -0.13577634594422375
0.4231474247421124 -4.862482435260949 -0.1269183438792811
0.29830715690140897 -4.238822189918754 -0.11412151579983283
0.19505191482174503 -3.5213981404185084 -0.09846648716287382
0.11347966664962184 -2.7286544664499455 -0.0809960497438993
0.055015107137864366 -1.87901152546555 -0.06335907258845755
0.023797255793837943 -0.9965730304895626 -0.049919628819930326
0.014842674334104508 -0.11489107846806167 -0.04831104886989498
0.0 0.0 0.0
0.025666893790318238 -0.9404197442298365 0.01585253335104845
0.06507441706494406 -1.798526446132579 0.030277552644128684
0.1208583107537892 -2.6227802940730696 0.04368417210729728
0.19785782474104308 -3.393794873830767 0.054030482967132684
0.29685178035062376 -4.094431073650456 0.06129303897333933
0.4174811616200424 -4.7070026548112915 0.06497363553929533
0.5591707113284683 -5.214522210545272 0.0647318705822447
0.7213595366116812 -5.600369180475185 0.060727287630845866
0.9033836454211956 -5.84707803141191 0.054667741015561266
1.100647029920264 -5.934394597253639 0.05116263506185821
1.2979333275833107 -5.847524026133213 0.05470376203399978
1.4800293721032571 -5.601259794186969 0.06082532634844616
1.6423499640196413 -5.215854212299165 0.06494931587172091
1.7842537219840753 -4.7087687512558665 0.06540996501618652
1.90522394841408 -4.0966116534022 0.0620988532495443
2.004764344810968 -3.396337855826551 0.055433995264043814
2.0826699144354026 -2.6255587373131464 0.04592681290221219
2.139926677551996 -1.8012910059325944 0.034016770374381125
2.182243681564837 -0.9430647129307129 0.020165993973818047
2.214825727832633 0.0 0.017701038057483614
0.37946046607508366 -0.027342493902434414 0.0023365486967304003
0.39482505301934223 -0.9390511883025197 0.007268157878584683
0.4135882479362656 -1.8045980452729538 0.01890271463334008
0.45105593068797567 -2.630379681113182 0.02844341027675398
0.5023164886742055 -3.4042390465248484 0.035840342521553645
0.5682469252362945 -4.107531107350829 0.040785814506805594
0.6485929913306266 -4.722795396266687 0.04320674361820428
0.7429289777545585 -5.23298646462948 0.04300558853943798
0.8506625367172465 -5.621570799817167 0.04040866152893544
0.9709758258558016 -5.871082780001506 0.0363927156070085
1.1007466658965712 -5.960145949539322 0.03382549974857435
1.2305400276598686 -5.871533642046433 0.0362998321707833
1.3509238002754798 -5.622471474328569 0.040243153523810984
1.458785419848501 -5.23433455287884 0.04281452760574574
1.5533266049034549 -4.7245854106817005 0.04307596572917145
1.63399108904559 -4.10974739050164 0.04085979557994349
1.700421819598617 -3.4068373427847156 0.03633227839674662
1.7524772538295288 -2.6332466695291377 0.029705909681061175
1.79130858526952 -1.8075368830175407 0.021254847961239602
1.8124631618752562 -0.942070634906509 0.011965346888481216
1.8291978136170508 -0.02781389346357631 0.013396426933695447
0.743866681001716 -0.048143116478826777 -0.004206680479299078
0.752384892610205 -0.9388672727559855 -0.00032816979932905293
0.7589254812101556 -1.8068508430719974 0.007314651751713951
0.7760895726807692 -2.635005090840901 0.013531821124637874
0.8017151441074475 -3.410351039627013 0.017850365932767894
0.8345638438247349 -4.115256080654257 0.020457213025081432
0.8746339018114313 -4.7320863962043545 0.021460738571391753
0.921558852391064 -5.243774577290809 0.020953052695600813
0.9746863692174842 -5.633876659354956 0.019051890712077177
1.0341620910485134 -5.885616033672492 0.015842999736561166
1.100854345851456 -5.9773775204099815 0.01300991125420331
1.1675684786003293 -5.886073982331162 0.01562295155896643
1.2271121333365544 -5.634791748121055 0.018627030188680036
1.2803610364673332 -5.245144922837516 0.020361557678906878
1.32747507976941 -4.733907475177812 0.020779741178067423
1.367828378755075 -4.117514656852562 0.019826160737709295
1.4011032112317185 -3.4130080731469428 0.017505014310490664
1.4273922001117862 -2.637954510689506 0.013833116153388147
1.445657937419485 -1.8099549566587712 0.008795372993590104
1.4533496727858795 -0.9417067262930395 0.0035757720522976905
1.4623774407743722 -0.048584358451370456 0.0041468732292342225
1.1007577232137424 -0.0621157920297745 -0.013024514398328732
1.1036450815291055 -0.939509789233113 -0.008679054092526603
1.1004857982834162 -1.8067515197647457 -0.004242085218078653
1.0987916852686839 -2.6363659770703634 -0.001419292215092028
1.0984774315805854 -3.412399404198946 -0.0001949781734768248
1.098279089084282 -4.1178090697549825 -3.708634687078406e-05
1.098068570419795 -4.735159433612536 -0.0005877888884719092
1.0977091129011598 -5.247203013144425 -0.0016337186551931965
1.0964020797905139 -5.637610769099417 -0.0031268508066868944
1.0953370593980989 -5.891515364268151 -0.0058320335546028276
1.1009660172913691 -5.988401833105886 -0.009678427669774215
1.1066160592224663 -5.891982511039217 -0.0061794882119243465
1.10561580603941 -5.638544341286648 -0.0038114425410482947
1.1044218189772814 -5.248601176501793 -0.002625546194170835
1.1042318523210461 -4.737017565420479 -0.0018178317680131735
1.1042614700930522 -4.120114563439259 -0.001365544295796279
1.1044014752531413 -3.4151141376733722 -0.0013677580568889705
1.1045925795809908 -2.6393976402612846 -0.002019952312306255
1.1035810628962581 -1.8098858319673716 -0.0036102928521497156
1.1009489209855707 -0.9420800293527698 -0.005722664102175415
1.104085156896024 -0.06257984085433799 -0.006554195602513938
1.455198083962791 -0.07007301063365824 -0.022124686879785672
1.4529767523109054 -0.9400852531187809 -0.017368110897450342
1.4409042100643286 -1.8049977380613087 -0.015742367654926582
1.4214527963544519 -2.6346532915549434 -0.016305498044473187
1.3953297340948503 -3.4103850953669683 -0.01818394458847967
1.3620079420032054 -4.115255254961816 -0.02049787515644694
1.3214531666656242 -4.732099355224035 -0.02262495321808747
1.273982433368236 -5.243486065018376 -0.02421064191811876
1.2187969896213289 -5.632836244368876 -0.025177547830704135
1.1564891991604165 -5.888437922053265 -0.026668263630500334
1.1010800233835603 -5.995033635232044 -0.031908714127330894
1.0456911882923248 -5.888916380174857 -0.027145514136417616
0.9834451046766426 -5.633792343042031 -0.02612702867902762
0.9283644697425641 -5.244917494422769 -0.025611564816993105
0.8810436112934423 -4.734000291536648 -0.024417418049421567
0.8406850620265057 -4.117610760740388 -0.022543609442063503
0.8076118300304389 -3.4131571693056997 -0.02020914447941795
0.7818014323114011 -2.637740904561899 -0.017831743190492633
0.7626798200146734 -1.8081035614021994 -0.016023261794970624
0.7507991942190939 -0.9424466558030133 -0.015422135096299354
0.7487026348873811 -0.07057746284520225 -0.017237548595983282
1.8107536425996393 -0.07349868995889 -0.03047466156185924
1.804217006461872 -0.9399671529416802 -0.025848097075178576
1.7834893015457198 -1.8017853667138153 -0.02709533595736851
1.7467340572986596 -2.6299961181143243 -0.031029985573905634
1.6948598395367702 -3.404232886765342 -0.03599669206619651
1.6283506009811042 -4.107529294030933 -0.04072267319216024
1.5474726591577652 -4.722759473075287 -0.04434309907347457
1.4525089366908204 -5.2327249813172205 -0.046238150615055436
1.3449688480873685 -5.6196900754740895 -0.04634800988547128
1.220760973143293 -5.874500609801338 -0.044904044024388856
1.1011945967037478 -5.998968194041012 -0.05046662343195521
0.9816480397312437 -5.874992630114586 -0.04551552955810079
0.8574995756717679 -5.620673026324362 -0.047572191905288136
0.7500577290763654 -5.234195634183495 -0.04806538943941276
0.6552275807979591 -4.7247095687660705 -0.04672625979851432
0.5745090682104592 -4.109939390302862 -0.043530746314310545
0.5081652096662169 -3.4070582902779307 -0.03894280549550156
0.4564228891329117 -2.6331168315281643 -0.033581059434623396
0.41970833681886943 -1.804853373937641 -0.028419528052879936
0.3989297456795805 -0.9422023879533891 -0.024969019649862787
0.3924061081253562 -0.07401987985792169 -0.02696068251046829
2.1694034095134542 -0.07459289110782805 -0.03688461944033495
2.1606211915586364 -0.9389611518200037 -0.033783926215835196
2.131776374895846 -1.7970494340613823 -0.038362294374696036
2.077209290659225 -2.6222455887885276 -0.04581225999985891
1.9994282268550085 -3.393764028611128 -0.05393236649474394
1.899761486572598 -4.094374947638288 -0.06105038984886636
1.7785441008327367 -4.706974821069439 -0.06601922129403501
1.6361808725415046 -5.214089379578658 -0.0680497383388963
1.4743172037974939 -5.599650920484296 -0.06661723032546805
1.2984214970533103 -5.846338432514301 -0.06138778021882497
1.1013052977337696 -6.000000000000001 -0.05903778985901583
0.9042086237413998 -5.846846448890721 -0.06213962685616478
0.7283709696117735 -5.6006654815732375 -0.06812983453818594
0.5666014259350661 -5.215605987670051 -0.07032792738471752
0.42436135420963594 -4.708982006297731 -0.06903467387022208
0.30327945108866106 -4.096846520651618 -0.06468981545785797
0.20372141422643036 -3.3966417262450483 -0.057913251788308126
0.12593892055174763 -2.625384477874714 -0.049565932022394024
0.07115973260197145 -1.8000746184740082 -0.040953819555003663
0.0419702994040609 -0.941121175002985 -0.03407665703616626
0.03304049612169183 -0.07509144513235112 -0.03446450007505409
0.0 0.0 0.0
0.035632526870721715 -0.9164728355561378 0.00684946172306215
0.0749437917508974 -1.7593867718538174 0.012853378749884504
0.12943063077658848 -2.571439567150242 0.018545652139097892
0.2042108717954656 -3.3331318066008224 0.022579487201235014
0.2995959104576758 -4.0280522938292505 0.024625286036784585
0.4153087226467832 -4.639700451735162 0.024521371862818456
0.551522542596166 -5.152224640673407 0.02230354039966212
0.7099894165014817 -5.549301105828815 0.018439739546449743
0.8940845135314794 -5.810283552337946 0.014280267093127581
1.1007022455377198 -5.905214041204237 0.012287918980934048
1.3072933346319444 -5.81017780185798 0.014284101002654565
1.4913044478921516 -5.549057095045472 0.0184633353285966
1.6496171480679027 -5.151778749561972 0.022381513179915297
1.7855826598731501 -4.638962428526832 0.024711216545647258
1.9009123816293858 -4.026918136574079 0.02500870697426751
1.9957177798460557 -3.3315108716964263 0.023261229988885013
2.0696127454779654 -2.569305794493695 0.019635663605501515
2.122780628188948 -1.7568246037945194 0.01462332726927521
2.1594122634014745 -0.9134152226456067 0.009844141264443444
2.18734841474781 0.0 0.010044084053773996
0.3810856667601891 -0.023644938734928574 0.000247649955725252
0.39681818854353834 -0.9163285308369934 0.003515037259833739
0.41761036977719007 -1.7657040243659734 0.008110519926237448
0.45487377684849706 -2.579459879270456 0.012254704892972208
0.5051355658024579 -3.3440340981488976 0.01524238592167825
0.5691346211730315 -4.041747439832972 0.01676307535038424
0.6466771635160246 -4.656332524815143 0.016793795103367145
0.7378630242842492 -5.172008774845925 0.01544197067223254
0.8435377228300757 -5.57277673059404 0.013054458898390487
0.9652531546653972 -5.838071218743611 0.010436512912155397
1.1006871086636507 -5.935803543674962 0.009116024513301662
1.2360880678034134 -5.83795636333597 0.010359895929309686
1.3577007914825687 -5.5725121377969336 0.01291266523111497
1.4631916538158594 -5.1715256272484424 0.015261168491526166
1.554092328231803 -4.655531626798492 0.016620391593712498
1.63121725180077 -4.040510282052569 0.016670299310211925
1.6946169049435684 -3.3422482902718076 0.015331809967011258
1.744032279536054 -2.5770682592357765 0.01268045535036324
1.7800054760811725 -1.762716407840373 0.009101744575018573
1.7986385551818034 -0.912565319248669 0.006245494451295999
1.813477926371352 -0.0224769628735505 0.007971226153780299
0.7412487697331804 -0.040760408111438294 -0.002375097984298133
0.7493397296872484 -0.9159397731496088 -0.00013705533070757094
0.7569584366026773 -1.768596753633916 0.0030054276517859687