# vtk DataFile Version 3.0
Some data
ASCII
DATASET UNSTRUCTURED_GRID
POINTS 1029 float
0.0 0.0 0.0
0.8 0.0 0.0
1.6 0.0 0.0
2.4000000000000004 0.0 0.0
3.2 0.0 0.0
4.0 0.0 0.0
4.800000000000001 0.0 0.0
5.6000000000000005 0.0 0.0
6.4 0.0 0.0
7.2 0.0 0.0
8.0 0.0 0.0
8.8 0.0 0.0
9.600000000000001 0.0 0.0
10.4 0.0 0.0
11.200000000000001 0.0 0.0
12.0 0.0 0.0
12.8 0.0 0.0
13.600000000000001 0.0 0.0
14.4 0.0 0.0
15.200000000000001 0.0 0.0
16.0 0.0 0.0
0.0 0.3333333333333333 0.0
0.8 0.3333333333333333 0.0
1.6 0.3333333333333333 0.0
2.4000000000000004 0.3333333333333333 0.0
3.2 0.3333333333333333 0.0
4.0 0.3333333333333333 0.0
4.800000000000001 0.3333333333333333 0.0
5.6000000000000005 0.3333333333333333 0.0
6.4 0.3333333333333333 0.0
7.2 0.3333333333333333 0.0
8.0 0.3333333333333333 0.0
8.8 0.3333333333333333 0.0
9.600000000000001 0.3333333333333333 0.0
10.4 0.3333333333333333 0.0
11.200000000000001 0.3333333333333333 0.0
12.0 0.3333333333333333 0.0
12.8 0.3333333333333333 0.0
13.600000000000001 0.3333333333333333 0.0
14.4 0.3333333333333333 0.0
15.200000000000001 0.3333333333333333 0.0
16.0 0.3333333333333333 0.0
0.0 0.6666666666666666 0.0
0.8 0.6666666666666666 0.0
1.6 0.6666666666666666 0.0
2.4000000000000004 0.6666666666666666 0.0
3.2 0.6666666666666666 0.0
4.0 0.6666666666666666 0.0
4.800000000000001 0.6666666666666666 0.0
5.6000000000000005 0.6666666666666666 0.0
6.4 0.6666666666666666 0.0
7.2 0.6666666666666666 0.0
8.0 0.6666666666666666 0.0
8.8 0.6666666666666666 0.0
9.600000000000001 0.6666666666666666 0.0
10.4 0.6666666666666666 0.0
11.200000000000001 0.6666666666666666 0.0
12.0 0.6666666666666666 0.0
12.8 0.6666666666666666 0.0
13.600000000000001 0.6666666666666666 0.0
14.4 0.6666666666666666 0.0
15.200000000000001 0.6666666666666666 0.0
16.0 0.6666666666666666 0.0
0.0 1.0 0.0
0.8 1.0 0.0
1.6 1.0 0.0
2.4000000000000004 1.0 0.0
3.2 1.0 0.0
4.0 1.0 0.0
4.800000000000001 1.0 0.0
5.6000000000000005 1.0 0.0
6.4 1.0 0.0
7.2 1.0 0.0
8.0 1.0 0.0
8.8 1.0 0.0
9.600000000000001 1.0 0.0
10.4 1.0 0.0
11.200000000000001 1.0 0.0
12.0 1.0 0.0
12.8 1.0 0.0
13.600000000000001 1.0 0.0
14.4 1.0 0.0
15.200000000000001 1.0 0.0
16.0 1.0 0.0
0.0 1.3333333333333333 0.0
0.8 1.3333333333333333 0.0
1.6 1.3333333333333333 0.0
2.4000000000000004 1.3333333333333333 0.0
3.2 1.3333333333333333 0.0
4.0 1.3333333333333333 0.0
4.800000000000001 1.3333333333333333 0.0
5.6000000000000005 1.3333333333333333 0.0
6.4 1.3333333333333333 0.0
7.2 1.3333333333333333 0.0
8.0 1.3333333333333333 0.0
8.8 1.3333333333333333 0.0
9.600000000000001 1.3333333333333333 0.0
10.4 1.3333333333333333 0.0
11.200000000000001 1.3333333333333333 0.0
12.0 1.3333333333333333 0.0
12.8 1.3333333333333333 0.0
13.600000000000001 1.3333333333333333 0.0
14.4 1.3333333333333333 0.0
15.200000000000001 1.3333333333333333 0.0
16.0 1.3333333333333333 0.0
0.0 1.6666666666666665 0.0
0.8 1.6666666666666665 0.0
1.6 1.6666666666666665 0.0
2.4000000000000004 1.6666666666666665 0.0
3.2 1.6666666666666665 0.0
4.0 1.6666666666666665 0.0
4.800000000000001 1.6666666666666665 0.0
5.6000000000000005 1.6666666666666665 0.0
6.4 1.6666666666666665 0.0
7.2 1.6666666666666665 0.0
8.0 1.6666666666666665 0.0
8.8 1.6666666666666665 0.0
9.600000000000001 1.6666666666666665 0.0
10.4 1.6666666666666665 0.0
11.200000000000001 1.6666666666666665 0.0
12.0 1.6666666666666665 0.0
12.8 1.6666666666666665 0.0
13.600000000000001 1.6666666666666665 0.0
14.4 1.6666666666666665 0.0
15.200000000000001 1.6666666666666665 0.0
16.0 1.6666666666666665 0.0
0.0 2.0 0.0
0.8 2.0 0.0
1.6 2.0 0.0
2.4000000000000004 2.0 0.0
3.2 2.0 0.0
4.0 2.0 0.0
4.800000000000001 2.0 0.0
5.6000000000000005 2.0 0.0
6.4 2.0 0.0
7.2 2.0 0.0
8.0 2.0 0.0
8.8 2.0 0.0
9.600000000000001 2.0 0.0
10.4 2.0 0.0
11.200000000000001 2.0 0.0
12.0 2.0 0.0
12.8 2.0 0.0
13.600000000000001 2.0 0.0
14.4 2.0 0.0
15.200000000000001 2.0 0.0
16.0 2.0 0.0
0.0 0.0 1.6666666666666667
0.8 0.0 1.6666666666666667
1.6 0.0 1.6666666666666667
2.4000000000000004 0.0 1.6666666666666667
3.2 0.0 1.6666666666666667
4.0 0.0 1.6666666666666667
4.800000000000001 0.0 1.6666666666666667
5.6000000000000005 0.0 1.6666666666666667
6.4 0.0 1.6666666666666667
7.2 0.0 1.6666666666666667
8.0 0.0 1.6666666666666667
8.8 0.0 1.6666666666666667
9.600000000000001 0.0 1.6666666666666667
10.4 0.0 1.6666666666666667
11.200000000000001 0.0 1.6666666666666667
12.0 0.0 1.6666666666666667
12.8 0.0 1.6666666666666667
13.600000000000001 0.0 1.6666666666666667
14.4 0.0 1.6666666666666667
15.200000000000001 0.0 1.6666666666666667
16.0 0.0 1.6666666666666667
0.0 0.3333333333333333 1.6666666666666667
0.8 0.3333333333333333 1.6666666666666667
1.6 0.3333333333333333 1.6666666666666667
2.4000000000000004 0.3333333333333333 1.6666666666666667
3.2 0.3333333333333333 1.6666666666666667
4.0 0.3333333333333333 1.6666666666666667
4.800000000000001 0.3333333333333333 1.6666666666666667
5.6000000000000005 0.3333333333333333 1.6666666666666667
6.4 0.3333333333333333 1.6666666666666667
7.2 0.3333333333333333 1.6666666666666667
8.0 0.3333333333333333 1.6666666666666667
8.8 0.3333333333333333 1.6666666666666667
9.600000000000001 0.3333333333333333 1.6666666666666667
10.4 0.3333333333333333 1.6666666666666667
11.200000000000001 0.3333333333333333 1.6666666666666667
12.0 0.3333333333333333 1.6666666666666667
12.8 0.3333333333333333 1.6666666666666667
13.600000000000001 0.3333333333333333 1.6666666666666667
14.4 0.3333333333333333 1.6666666666666667
15.200000000000001 0.3333333333333333 1.6666666666666667
16.0 0.3333333333333333 1.6666666666666667
0.0 0.6666666666666666 1.6666666666666667
0.8 0.6666666666666666 1.6666666666666667
1.6 0.6666666666666666 1.6666666666666667
2.4000000000000004 0.6666666666666666 1.6666666666666667
3.2 0.6666666666666666 1.6666666666666667
4.0 0.6666666666666666 1.6666666666666667
4.800000000000001 0.6666666666666666 1.6666666666666667
5.6000000000000005 0.6666666666666666 1.6666666666666667
6.4 0.6666666666666666 1.6666666666666667
7.2 0.6666666666666666 1.6666666666666667
8.0 0.6666666666666666 1.6666666666666667
8.8 0.6666666666666666 1.6666666666666667
9.600000000000001 0.6666666666666666 1.6666666666666667
10.4 0.6666666666666666 1.6666666666666667
11.200000000000001 0.6666666666666666 1.6666666666666667
12.0 0.6666666666666666 1.6666666666666667
12.8 0.6666666666666666 1.6666666666666667
13.600000000000001 0.6666666666666666 1.6666666666666667
14.4 0.6666666666666666 1.6666666666666667
15.200000000000001 0.6666666666666666 1.6666666666666667
16.0 0.6666666666666666 1.6666666666666667
0.0 1.0 1.6666666666666667
0.8 1.0 1.6666666666666667
1.6 1.0 1.6666666666666667
2.4000000000000004 1.0 1.6666666666666667
3.2 1.0 1.6666666666666667
4.0 1.0 1.6666666666666667
4.800000000000001 1.0 1.6666666666666667
5.6000000000000005 1.0 1.6666666666666667
6.4 1.0 1.6666666666666667
7.2 1.0 1.6666666666666667
8.0 1.0 1.6666666666666667
8.8 1.0 1.6666666666666667
9.600000000000001 1.0 1.6666666666666667
10.4 1.0 1.6666666666666667
11.200000000000001 1.0 1.6666666666666667
12.0 1.0 1.6666666666666667
12.8 1.0 1.6666666666666667
13.600000000000001 1.0 1.6666666666666667
14.4 1.0 1.6666666666666667
15.200000000000001 1.0 1.6666666666666667
16.0 1.0 1.6666666666666667
0.0 1.3333333333333333 1.6666666666666667
0.8 1.3333333333333333 1.6666666666666667
1.6 1.3333333333333333 1.6666666666666667
2.4000000000000004 1.3333333333333333 1.6666666666666667
3.2 1.3333333333333333 1.6666666666666667
4.0 1.3333333333333333 1.6666666666666667
4.800000000000001 1.3333333333333333 1.6666666666666667
5.6000000000000005 1.3333333333333333 1.6666666666666667
6.4 1.3333333333333333 1.6666666666666667
7.2 1.3333333333333333 1.6666666666666667
8.0 1.3333333333333333 1.6666666666666667
8.8 1.3333333333333333 1.6666666666666667
9.600000000000001 1.3333333333333333 1.6666666666666667
10.4 1.3333333333333333 1.6666666666666667
11.200000000000001 1.3333333333333333 1.6666666666666667
12.0 1.3333333333333333 1.6666666666666667
12.8 1.3333333333333333 1.6666666666666667
13.600000000000001 1.3333333333333333 1.6666666666666667
14.4 1.3333333333333333 1.6666666666666667
15.200000000000001 1.3333333333333333 1.6666666666666667
16.0 1.3333333333333333 1.6666666666666667
0.0 1.6666666666666665 1.6666666666666667
0.8 1.6666666666666665 1.6666666666666667
1.6 1.6666666666666665 1.6666666666666667
2.4000000000000004 1.6666666666666665 1.6666666666666667
3.2 1.6666666666666665 1.6666666666666667
4.0 1.6666666666666665 1.6666666666666667
4.800000000000001 1.6666666666666665 1.6666666666666667
5.6000000000000005 1.6666666666666665 1.6666666666666667
6.4 1.6666666666666665 1.6666666666666667
7.2 1.6666666666666665 1.6666666666666667
8.0 1.6666666666666665 1.6666666666666667
8.8 1.6666666666666665 1.6666666666666667
9.600000000000001 1.6666666666666665 1.6666666666666667
10.4 1.6666666666666665 1.6666666666666667
11.200000000000001 1.6666666666666665 1.6666666666666667
12.0 1.6666666666666665 1.6666666666666667
12.8 1.6666666666666665 1.6666666666666667
13.600000000000001 1.6666666666666665 1.6666666666666667
14.4 1.6666666666666665 1.6666666666666667
15.200000000000001 1.6666666666666665 1.6666666666666667
16.0 1.6666666666666665 1.6666666666666667
0.0 2.0 1.6666666666666667
0.8 2.0 1.6666666666666667
1.6 2.0 1.6666666666666667
2.4000000000000004 2.0 1.6666666666666667
3.2 2.0 1.6666666666666667
4.0 2.0 1.6666666666666667
4.800000000000001 2.0 1.6666666666666667
5.6000000000000005 2.0 1.6666666666666667
6.4 2.0 1.6666666666666667
7.2 2.0 1.6666666666666667
8.0 2.0 1.6666666666666667
8.8 2.0 1.6666666666666667
9.600000000000001 2.0 1.6666666666666667
10.4 2.0 1.6666666666666667
11.200000000000001 2.0 1.6666666666666667
12.0 2.0 1.6666666666666667
12.8 2.0 1.6666666666666667
13.600000000000001 2.0 1.6666666666666667
14.4 2.0 1.6666666666666667
15.200000000000001 2.0 1.6666666666666667
16.0 2.0 1.6666666666666667
0.0 0.0 3.3333333333333335
0.8 0.0 3.3333333333333335
1.6 0.0 3.3333333333333335
2.4000000000000004 0.0 3.3333333333333335
[...]
POINT_DATA 1029
VECTORS Disp float
0.0 0.0 0.0
0.003658585047474597 -0.13266574845570483 0.0031755131399574645
0.008810120861679867 -0.24999531892879112 0.006837544983482083
0.015935085701950378 -0.3630127592647552 0.009761865211085187
0.026074354027963154 -0.46865397032492195 0.012411717382839403
0.03937013187879705 -0.564428254272469 0.014602602815277244
0.05576753936156435 -0.6477039147724197 0.016243388464821096
0.07516738469824848 -0.7159359933016943 0.017217512892213904
0.09730454809001918 -0.7666435669539421 0.017443387207812695
0.12152042557400344 -0.7977084802738734 0.017054489913386043
0.14672329095315612 -0.8080597337345277 0.016702520921541324
0.17193511336355655 -0.7978600496413357 0.01706851375992658
0.19617960940878734 -0.7669502407857973 0.017476354551769737
0.21837053089830025 -0.7164042272260287 0.01728030507998182
0.23785920560588647 -0.6483414434973773 0.016354738190919246
0.25439623328231065 -0.5652400941427158 0.014792570885501437
0.26790447571933934 -0.4696354104546835 0.012722909887088973
0.2783603811166478 -0.36413725879476183 0.010267741921433605
0.2859465248644985 -0.2512110025986461 0.0075840122926002
0.29189354475813195 -0.13387478137183217 0.004508751301394064
0.29746137825731145 0.0 -2.574275076684492e-05
0.052067989989054896 -0.005665181668150666 -0.0016673010806634082
0.0543152627538317 -0.132076841655104 0.0016635230991564162
0.056126977063912176 -0.2507940686220538 0.004331482435322937
0.060795882907586404 -0.36395107711636665 0.006592644590954238
0.06738269851832482 -0.4700036266502563 0.008485135379496177
0.07607952677300193 -0.5661386646010741 0.010042310327019837
0.0868365824650293 -0.6497785800874051 0.011196244693276002
0.0995856011611802 -0.7183601207731877 0.011893747300357197
0.1141526559870982 -0.7693711648658442 0.012098234768761113
0.13011389439684276 -0.8006125864183851 0.01189353937067674
0.14675059335758597 -0.8109738646783746 0.011675814559701965
0.16339676389000463 -0.800766649800508 0.011888712569184409
0.17938803672337073 -0.7696832926946086 0.012092764756653674
0.19401068114033793 -0.7188377515425551 0.011897116278463127
0.20684963788610733 -0.6504310129244044 0.011225619161002601
0.21774423325232184 -0.5669732985810374 0.010125598797462027
0.22664493209561218 -0.47101848999696483 0.008667617103657436
0.2335252563053683 -0.3651235887728816 0.0069347220085530644
0.23861927499721 -0.25207865876731883 0.0049516729036401105
0.24103716798279592 -0.1333816053080348 0.0025702749591672304
0.2436093624339203 -0.005978505776956353 -0.0006724175008581516
0.1012230832663337 -0.009836211410333504 -0.0027246721577210194
0.10238187087463693 -0.1318792013707092 -0.00014744689692775155
0.10258406064123042 -0.2509751862934126 0.0017572558176087644
0.10439565555105576 -0.3645179210606475 0.0031613422882266623
0.10750714566722154 -0.47077774058354505 0.004235663354563154
0.11169346442289708 -0.5671411580351156 0.005055636276028834
0.116948935988675 -0.650997911150656 0.005626300097109843
0.1232474401527153 -0.7197972413581022 0.005936007164783239
0.13054257799667152 -0.7709961447423817 0.005978838951102621
0.13858278089519635 -0.8022753303461 0.005769537478261194
0.14677224129661154 -0.8124603528186549 0.005533575179279927
0.154971355122473 -0.8024320895059167 0.00574589170973597
0.16304198216351734 -0.771314076260118 0.0059349259269022
0.17039273922309522 -0.7202846133265989 0.00587984953445689
0.17677951971049807 -0.6516653116826576 0.005573123890306726
0.1821666860157508 -0.5679978305642447 0.005032096462331637
0.1865422590285424 -0.471824185375316 0.00428506651572804
0.18991741923098207 -0.3657326706139733 0.0033522582848421706
0.19208140733613366 -0.25231569606007553 0.0021858697344943777
0.19257169588063971 -0.13313794790201883 0.0005751923072110919
0.19387028304854254 -0.010318859521183808 -0.0017123021713046256
0.1489333843437757 -0.012509310658900602 -0.0036690172522481222
0.14924478457395163 -0.13191271022118295 -0.0019087881750714801
0.14822319326737612 -0.25082466608136067 -0.0008439353602882911
0.14746128119558574 -0.3646299189770694 -0.00034788969269348156
0.1470571114320449 -0.47101036985697653 -0.00014055782266077934
0.14678499975793058 -0.5674531334631346 -9.372365215852167e-05
0.14660075458749386 -0.6513910399129278 -0.0001498923629557033
0.14653252630842295 -0.7202851045530759 -0.0002780838020005745
0.14668540873223015 -0.7715759317638793 -0.0004495217949097388
0.14699500587778658 -0.8027188696661383 -0.0006979899163860196
0.14679155160937107 -0.8123689485455118 -0.0009979565924300578
0.1465977916792086 -0.802878445330857 -0.0007405936075808348
0.1469377635383823 -0.7718998598723907 -0.0005322033810473938
0.14714550349691632 -0.7207823587269776 -0.0003944055617860997
0.14716267009252632 -0.6520732190113182 -0.00028657611261341526
0.14710225081417663 -0.5683309896410252 -0.000225949235287588
0.14700130207336198 -0.4720858121494207 -0.00022512916705776364
0.14682418593539162 -0.3658832202163554 -0.0003148661744193959
0.14631150149603211 -0.2521814148429362 -0.0005987161446134713
0.1454437525392377 -0.133121318719555 -0.0013678183445416364
0.14583227441343924 -0.01311727649087583 -0.002815566350129679
0.1962528196666561 -0.013940246260199003 -0.004639435390151393
0.19581589001908783 -0.1319662080136182 -0.003581339608747307
0.19366198956901773 -0.250456290924108 -0.00340231504978066
0.19051901109645547 -0.3643180615170676 -0.0038373183229745383
0.18662720028849789 -0.4706928523192538 -0.004508957437902223
0.18188017542619608 -0.5670814901268127 -0.00523782857100829
0.17626409680519733 -0.6509626024320203 -0.005923699438442695
0.16981311798359633 -0.7198221873994336 -0.006494602672801747
0.16277497713861522 -0.771137759257285 -0.006871199251906145
0.15544884491942296 -0.802017823572461 -0.00703627415640429
0.14681138264253843 -0.810475082878619 -0.007305428599127248
0.13818370013362458 -0.8021803122143586 -0.007098149295383358
0.13088801995704313 -0.771467834077091 -0.006993348730163208
0.12390417417489545 -0.7203294068544973 -0.006672300233465025
0.11753596223683754 -0.6516593434993413 -0.006145840433726096
0.11203585739406552 -0.567979347249792 -0.005481558078562158
0.10744115446664534 -0.47179501861990936 -0.004731717543785098
0.10373154198253892 -0.3656003802572424 -0.00396769724838244
0.10075806933189232 -0.2518159772892177 -0.0033391562268716294
0.09869211776895057 -0.13314293854494133 -0.003226800812852218
0.09829729688743433 -0.014627818129644497 -0.003972523628470828
0.24388877521839442 -0.014475647392155944 -0.0056846649667010914
0.24286176734366619 -0.13191093358817907 -0.005159499807407704
0.23961902692308368 -0.24990330312495249 -0.005859857600995362
0.23417745315732322 -0.36361287558306543 -0.007211660711588656
0.22678548285295777 -0.46982025255047477 -0.008735609384376553
0.21751396944492443 -0.5660173362403798 -0.010206414883969707
0.20639369407330557 -0.6497149665237356 -0.011487202863670398
0.19351678658602406 -0.7183800492311874 -0.012458221691354018
0.17897035059790223 -0.7696503128354004 -0.013002027119466898
0.16389022610333787 -0.8003706581445993 -0.012816964361079644
0.14683463874244293 -0.8064353580004349 -0.012563027702793063
0.12978916511299926 -0.8005361915919985 -0.012898589488965861
0.11474031855419868 -0.7699867519484531 -0.013164691838477034
0.10024888436681224 -0.7188974297462274 -0.01269909705824409
0.08745393523009133 -0.6504261433089769 -0.011797627066602225
0.07644432164721028 -0.5669341915527472 -0.010565874852844047
0.06730773671119927 -0.4709454322510719 -0.009102709518251833
0.06005504543171774 -0.3649161601844 -0.0075126623801587905
0.05471634098737721 -0.2512645800542099 -0.005983296444442818
0.05150993231993681 -0.13307191867764684 -0.0049899757435147825
0.05049355437751256 -0.015201514193200445 -0.005198130506294983
0.2922333079871358 -0.014584832938807104 -0.006768815226494419
0.29106955609770524 -0.13172540042626968 -0.00664636819023421
0.2869498563056559 -0.24917630212465086 -0.008132660958978754
0.279124596443854 -0.3625044465705831 -0.010320085035007342
0.2681450678448859 -0.46837538697641606 -0.012610543326088346
0.25425337810817417 -0.5642411324489646 -0.014735938950687756
0.23749759299752254 -0.6476050679980307 -0.01652026293290033
0.21798261690540496 -0.7159874654901253 -0.01779720513312995
0.19589123624939023 -0.7668351705056734 -0.0184094935933288
0.17130790423862388 -0.7980856818378061 -0.01775711917468626
0.14686478031468703 -0.8 -0.015090105350498826
0.12243260457788029 -0.7982545141490394 -0.01785911070953613
0.09788289202980563 -0.7671784311038732 -0.018614007640253862
0.07584977435070679 -0.7165155315842837 -0.018103512792406923
0.05641965663228904 -0.6483309913678852 -0.016922445850397434
0.03977428758688117 -0.5651762919889081 -0.015216202106450983
0.026006921976280246 -0.4695197520555665 -0.013128864954851306
0.01513062222001597 -0.36382059552645724 -0.010799473298982058
0.0073353476184615215 -0.2505348700619256 -0.008447876344919853
0.003172967439264085 -0.13287640406518506 -0.006655950509110095
0.0019790232446351363 -0.01531881046237385 -0.006441473182427591
0.0 0.0 0.0
0.0034222525053774037 -0.12538929923061873 0.002113671113479862
0.008676588941992268 -0.23980352615096548 0.004037007019230362
0.016114441433834416 -0.3497040392096844 0.005824556280992567
0.02638104329879742 -0.45250598317737495 0.00720406439564133
0.03958023738007079 -0.545924143153329 0.008172405196472762
0.05566415488265615 -0.6276003539747802 0.008663151405269307
0.0745560948437792 -0.6952696280726487 0.008630916077669007
0.09618127154821274 -0.7467158907299749 0.008096971684156809
0.1204511527228291 -0.7796104041882148 0.007289032135463044
0.1467529373227258 -0.7912526129670819 0.006821684674980918
0.17305777701113917 -0.779669870150993 0.007293834937942458
0.19733724961379934 -0.7468346392247962 0.008110043513212508
0.21897999520264325 -0.6954472283063908 0.008659908782993261
0.23790049626455012 -0.6278358335005965 0.008721328668932637
0.25402985978853737 -0.5462148871201162 0.00827984710006163
0.2673019126414417 -0.4528450474433574 0.007391199368674006
0.2776893219246813 -0.3500744983082649 0.006123575053780035
0.2853235570068791 -0.2401721341242247 0.004535569383420104
0.2909658242085811 -0.1257419617240228 0.0026887991966960717
0.2953100970442768 0.0 0.002360138407863576
0.050594728810005436 -0.003645665853654264 0.00031153982623155144
0.05264334040257235 -0.1252068251069765 0.0009690877171516174
0.055145099724828714 -0.24061307270301605 0.0025203619511256223
0.06014079075838953 -0.3507172908150332 0.0037924547035874966
0.06697553182321772 -0.4538985395365834 0.004778712336232776
0.07576625669816023 -0.5476708143133795 0.005438108600938095
0.08647906551073535 -0.6297060528354979 0.005760899149130456
0.09905719703392585 -0.6977315286172101 0.005734078471968111
0.11342167156229041 -0.7495427733089053 0.005387821537243455
0.12946344344743926 -0.782811037333493 0.004852362080997628
0.14676622211955392 -0.7946861266051795 0.004510066633218694
0.1640720036880012 -0.782871152272756 0.00483997762285533
0.18012317337008282 -0.7496628632436699 0.005365753803269562
0.19450472264648044 -0.6979112737170107 0.005708603680871397
0.2071102139871313 -0.6299447214240392 0.005743462097340164
0.21786547853940524 -0.5479663187333729 0.005447972744123028
0.22672290927979977 -0.4542449790377804 0.004844303786376968
0.23366363384391015 -0.3510995559370589 0.003960787957634249
0.23884114470256565 -0.24100491773554994 0.002833979728340098
0.2416617549166603 -0.12560941798746333 0.0015953795853213574
0.24389304181556243 -0.003708519128468334 0.001786190258027089
0.09918222413355007 -0.006419082197169851 -0.0005608907305716868
0.10031798568134813 -0.1251823030341067 -4.3755973236446176e-05
0.10119006416134253 -0.240913445742888 0.0009752869002428696
0.10347860969075783 -0.35133401211206416 0.001804242816639713
0.10689535254764809 -0.45471347195020484 0.0023800487910638495
0.11127517917661911 -0.5487008107538354 0.0027276284033791037
0.11661785357484276 -0.6309448528271836 0.0028614318095616124
0.12287451365212702 -0.6991699436387249 0.002793740359463454
0.129958182562321 -0.7511835545806146 0.0025402520950030018
0.13788827880646304 -0.7847488044896289 0.002112399964944835
0.14678057944686349 -0.7969836693879353 0.001734654833978304
0.15567579714671975 -0.7848098643107224 0.0020830602079548225
0.1636149511115476 -0.751305566415999 0.002483604025260553
0.17071480486231577 -0.6993526563781701 0.002714874357301954
0.1769966773025877 -0.6311876633568503 0.0027706321572023634
0.18237711716733868 -0.5490019542468288 0.002643488098501109
0.1868137614975524 -0.45506774308607517 0.002334001908218809
0.1903189600148894 -0.35172726809177457 0.001844415487284827
0.19275439165591235 -0.2413273275543828 0.001172716399325703
0.19377995637143114 -0.12556089683899982 0.00047676960716746804
0.19498365876989351 -0.006477914460168282 0.0005529164307698515
0.14676769642848167 -0.008282105603960985 -0.0017366019197753754
0.14715267753719685 -0.1252679718977233 -0.0011572072123287886
0.1467314397711059 -0.24090020263525525 -0.000565611362395622
0.1465055580358083 -0.35151546360932534 -0.00018923896198932521
0.1464636575440642 -0.4549865872264616 -2.5997089766281937e-05
0.14643721187789033 -0.5490412093005947 -4.944846210475381e-06
0.14640914272262612 -0.6313545911482723 -7.837185174805384e-05
0.14636121505347427 -0.6996270684192121 -0.0002178291539687412
0.14618694397205695 -0.7516814358798789 -0.00041691344082567293
0.14604494125306902 -0.7855353819023874 -0.0007776044738699577
0.1467954689721769 -0.7984535777474037 -0.001290457022546159
0.1475488078963289 -0.7855976681384604 -0.0008239317614899713
0.1474154408052524 -0.7518059121714074 -0.0005081923386952404
0.1472562425302999 -0.6998134902000739 -0.00035007282576600786
0.14723091364280283 -0.6316023420558735 -0.00024237756893205343
0.14723486267907063 -0.5493486084583861 -0.00018207257262333295
0.14725353003374803 -0.45534855168959437 -0.00018236774075657824
0.14727901061079574 -0.35191968536801344 -0.00026932697480032864
0.14714414171949897 -0.2413181109288622 -0.00048137238010042573
0.14679318946474162 -0.12561067058029773 -0.0007630218800912656
0.1472113542528007 -0.008343978780559688 -0.0008738927467915017
0.19402641119501612 -0.009343068084478231 -0.0029499582506362382
0.19373023364143094 -0.1253447004158114 -0.0023157481196514336
0.1921205613418891 -0.24066636507479783 -0.0020989823539744935
0.18952703951390812 -0.3512871055406037 -0.002174066405905964
0.18604396454596314 -0.4547180127155329 -0.0024245259450973097
0.18160105893374606 -0.5487007006615068 -0.002733050020816149
0.17619375555540434 -0.6309465806964745 -0.003016660429024443
0.16986432444908756 -0.6991314753357358 -0.003228085589019437
0.16250626528283107 -0.7510448325824739 -0.003357006377354289
0.1541985598880396 -0.7851250562737342 -0.003555768483983032
0.1468106697844597 -0.7993378180309043 -0.004254495216882389
0.13942549177230065 -0.785188850689879 -0.00361940188474907
0.13112601395687198 -0.7511723124054595 -0.003483603823751379
0.123781929298997 -0.6993223325895344 -0.003414875308799404
0.11747248150578457 -0.6312000388713666 -0.0032556557397758093
0.11209134160353135 -0.5490147680985367 -0.0030058145921156893
0.10768157733739558 -0.45508762257390645 -0.002694552597085025
0.10424019097486263 -0.3516987872747625 -0.0023775657585511306
0.101690642668637 -0.24108047485350714 -0.002136434905803832
0.10010655922922886 -0.12565955410699575 -0.002056284679303243
0.09982701798500047 -0.009410328379339798 -0.0022983398125822727
0.24143381901325692 -0.00979982532784191 -0.00406328820824604
0.24056226752822163 -0.12532895372553154 -0.0034464129433483337
0.23779857353940242 -0.24023804889513234 -0.0036127114609660845
0.23289787430646663 -0.3506661490818547 -0.004137331409829072
0.2259813119382163 -0.45389771823531455 -0.004799558942124114
0.2171134134641326 -0.5476705725373933 -0.0054296897589065
0.20632968788769168 -0.6297012630766363 -0.00591241320973733
0.19366785822543298 -0.6976966641755815 -0.006165086748602964
0.17932917974497278 -0.7492920100631706 -0.0061797346513151625
0.16276812975241933 -0.7832667479734732 -0.005987205869829492
0.1468259462271429 -0.7998624258721159 -0.006728883124160578
0.13088640529747678 -0.7833323506818434 -0.006068737274301172
0.11433327675620929 -0.749423070176431 -0.00634295892057765
0.1000076972101621 -0.697892751224302 -0.00640871859177846
0.08736367743971737 -0.6299612758352856 -0.006230167972977989
0.07660120909472665 -0.5479919187068669 -0.0058040995084055235
0.06775536128883876 -0.45427443870353973 -0.005192374065886987
0.06085638521774394 -0.35108224420359996 -0.004477474591093895
0.05596111157587945 -0.24064711652489756 -0.003789270406852524
0.053190632757311763 -0.12562698506037992 -0.003329202619773889
0.05232081441675014 -0.009869317314368072 -0.0035947576678424477
0.2892537879350922 -0.009945718814367174 -0.004917949258709396
0.28808282554111936 -0.12519482024264103 -0.004504523495436048
0.284236849986081 -0.23960659120814193 -0.0051149725832757295
0.27696123875453404 -0.3496327451717517 -0.006108301333288556
0.26659043024731377 -0.4525018704814187 -0.007190982199261892
0.25330153154299806 -0.5459166596850394 -0.008140051979796652
0.2371392134443569 -0.6275966428091886 -0.008802562839139137
0.21815744967219577 -0.695211917277107 -0.009073298445106662
0.19657562717298982 -0.7466201227312002 -0.008882297376639196
0.17312286627376136 -0.7795117910018667 -0.008185037362414134
0.14684070636446886 -0.8 -0.0078717053144325
0.12056114983213681 -0.7795795265186638 -0.008285283580703833
0.09711612928153042 -0.7467553975429497 -0.009083977938288109
0.07554685679131452 -0.6954141316891755 -0.009377056984475933
0.056581513894602864 -0.6278642675061775 -0.009204623182527986
0.040437260145155474 -0.5462462027533675 -0.008625308727536196
0.027162855230206718 -0.45288556349916165 -0.007721766904918744
0.01679185607360117 -0.35005126371647644 -0.006608790936122281
0.009487964346976475 -0.24000994912974868 -0.005460509273796127
0.005596039920596236 -0.12548282333365957 -0.004543554271277267
0.004405399482948522 -0.010012192684292034 -0.004595266676450705
0.0 0.0 0.0
0.0047510035827539165 -0.12219637807412696 0.0009132615630809081
0.009992505566771464 -0.2345849029138063 0.001713783833330177
0.017257417436855896 -0.34285860895331793 0.002472753618564837
0.027228116239365274 -0.4444175742133929 0.00301059829352146
0.03994612139431859 -0.5370736391771841 0.0032833714715989086
0.05537449635286221 -0.6186267268979916 0.0032695162484078872
0.07353633901278382 -0.6869632854231106 0.00297380538665935
0.09466525553350108 -0.7399068141105083 0.0024586319395744644
0.11921126847084842 -0.7747044736450559 0.00190403561248019
0.14676029940502647 -0.7873618721605388 0.0016383891975302763
0.17430577795092878 -0.7746903735810112 0.0019045468004350097
0.19884059305229013 -0.7398742793393064 0.0024617780438973467
0.21994895307571555 -0.68690383327481 0.0029842017574148575
0.23807768798307966 -0.618528323803447 0.003294828872859482
0.25345498421722745 -0.5369224182097175 0.003334494263357627
0.26609570397943183 -0.44420144955938334 0.0031014973319897733
0.27594836606367507 -0.3425741059323676 0.0026180884808877317
0.2830374170917956 -0.23424328050584411 0.0019497769694072887
0.2879216351201231 -0.12178869635269328 0.0013125521687788605
0.29164645529962846 0.0 0.0013392112073679966
0.05081142223467891 -0.0031526584979870995 3.301999409769145e-05
0.052909091805789205 -0.12217713744490795 0.0004686716346508982
0.05568138263693865 -0.2354272032487589 0.0010814026568448814
0.060649836913107706 -0.34392798390267737 0.0016339606524162962
0.06735140877363058 -0.4458712130864697 0.0020323181229168377
0.07588461615637046 -0.5388996586443476 0.002235076713417102
0.08622362180210125 -0.620844336641992 0.002239172680487896
0.09838173657119942 -0.6896011699794444 0.0020589294230115673
0.11247169637731533 -0.7430368974125381 0.0017405945198431215
0.12870042062203269 -0.7784094958324799 0.0013915350550225847