# vtk DataFile Version 3.0
Some data
ASCII
DATASET UNSTRUCTURED_GRID
POINTS 1029 float
0.0 0.0 0.0
0.8 0.0 0.0
1.6 0.0 0.0
2.4000000000000004 0.0 0.0
3.2 0.0 0.0
4.0 0.0 0.0
4.800000000000001 0.0 0.0
5.6000000000000005 0.0 0.0
6.4 0.0 0.0
7.2 0.0 0.0
8.0 0.0 0.0
8.8 0.0 0.0
9.600000000000001 0.0 0.0
10.4 0.0 0.0
11.200000000000001 0.0 0.0
12.0 0.0 0.0
12.8 0.0 0.0
13.600000000000001 0.0 0.0
14.4 0.0 0.0
15.200000000000001 0.0 0.0
16.0 0.0 0.0
0.0 0.3333333333333333 0.0
0.8 0.3333333333333333 0.0
1.6 0.3333333333333333 0.0
2.4000000000000004 0.3333333333333333 0.0
3.2 0.3333333333333333 0.0
4.0 0.3333333333333333 0.0
4.800000000000001 0.3333333333333333 0.0
5.6000000000000005 0.3333333333333333 0.0
6.4 0.3333333333333333 0.0
7.2 0.3333333333333333 0.0
8.0 0.3333333333333333 0.0
8.8 0.3333333333333333 0.0
9.600000000000001 0.3333333333333333 0.0
10.4 0.3333333333333333 0.0
11.200000000000001 0.3333333333333333 0.0
12.0 0.3333333333333333 0.0
12.8 0.3333333333333333 0.0
13.600000000000001 0.3333333333333333 0.0
14.4 0.3333333333333333 0.0
15.200000000000001 0.3333333333333333 0.0
16.0 0.3333333333333333 0.0
0.0 0.6666666666666666 0.0
0.8 0.6666666666666666 0.0
1.6 0.6666666666666666 0.0
2.4000000000000004 0.6666666666666666 0.0
3.2 0.6666666666666666 0.0
4.0 0.6666666666666666 0.0
4.800000000000001 0.6666666666666666 0.0
5.6000000000000005 0.6666666666666666 0.0
6.4 0.6666666666666666 0.0
7.2 0.6666666666666666 0.0
8.0 0.6666666666666666 0.0
8.8 0.6666666666666666 0.0
9.600000000000001 0.6666666666666666 0.0
10.4 0.6666666666666666 0.0
11.200000000000001 0.6666666666666666 0.0
12.0 0.6666666666666666 0.0
12.8 0.6666666666666666 0.0
13.600000000000001 0.6666666666666666 0.0
14.4 0.6666666666666666 0.0
15.200000000000001 0.6666666666666666 0.0
16.0 0.6666666666666666 0.0
0.0 1.0 0.0
0.8 1.0 0.0
1.6 1.0 0.0
2.4000000000000004 1.0 0.0
3.2 1.0 0.0
4.0 1.0 0.0
4.800000000000001 1.0 0.0
5.6000000000000005 1.0 0.0
6.4 1.0 0.0
7.2 1.0 0.0
8.0 1.0 0.0
8.8 1.0 0.0
9.600000000000001 1.0 0.0
10.4 1.0 0.0
11.200000000000001 1.0 0.0
12.0 1.0 0.0
12.8 1.0 0.0
13.600000000000001 1.0 0.0
14.4 1.0 0.0
15.200000000000001 1.0 0.0
16.0 1.0 0.0
0.0 1.3333333333333333 0.0
0.8 1.3333333333333333 0.0
1.6 1.3333333333333333 0.0
2.4000000000000004 1.3333333333333333 0.0
3.2 1.3333333333333333 0.0
4.0 1.3333333333333333 0.0
4.800000000000001 1.3333333333333333 0.0
5.6000000000000005 1.3333333333333333 0.0
6.4 1.3333333333333333 0.0
7.2 1.3333333333333333 0.0
8.0 1.3333333333333333 0.0
8.8 1.3333333333333333 0.0
9.600000000000001 1.3333333333333333 0.0
10.4 1.3333333333333333 0.0
11.200000000000001 1.3333333333333333 0.0
12.0 1.3333333333333333 0.0
12.8 1.3333333333333333 0.0
13.600000000000001 1.3333333333333333 0.0
14.4 1.3333333333333333 0.0
15.200000000000001 1.3333333333333333 0.0
16.0 1.3333333333333333 0.0
0.0 1.6666666666666665 0.0
0.8 1.6666666666666665 0.0
1.6 1.6666666666666665 0.0
2.4000000000000004 1.6666666666666665 0.0
3.2 1.6666666666666665 0.0
4.0 1.6666666666666665 0.0
4.800000000000001 1.6666666666666665 0.0
5.6000000000000005 1.6666666666666665 0.0
6.4 1.6666666666666665 0.0
7.2 1.6666666666666665 0.0
8.0 1.6666666666666665 0.0
8.8 1.6666666666666665 0.0
9.600000000000001 1.6666666666666665 0.0
10.4 1.6666666666666665 0.0
11.200000000000001 1.6666666666666665 0.0
12.0 1.6666666666666665 0.0
12.8 1.6666666666666665 0.0
13.600000000000001 1.6666666666666665 0.0
14.4 1.6666666666666665 0.0
15.200000000000001 1.6666666666666665 0.0
16.0 1.6666666666666665 0.0
0.0 2.0 0.0
0.8 2.0 0.0
1.6 2.0 0.0
2.4000000000000004 2.0 0.0
3.2 2.0 0.0
4.0 2.0 0.0
4.800000000000001 2.0 0.0
5.6000000000000005 2.0 0.0
6.4 2.0 0.0
7.2 2.0 0.0
8.0 2.0 0.0
8.8 2.0 0.0
9.600000000000001 2.0 0.0
10.4 2.0 0.0
11.200000000000001 2.0 0.0
12.0 2.0 0.0
12.8 2.0 0.0
13.600000000000001 2.0 0.0
14.4 2.0 0.0
15.200000000000001 2.0 0.0
16.0 2.0 0.0
0.0 0.0 1.6666666666666667
0.8 0.0 1.6666666666666667
1.6 0.0 1.6666666666666667
2.4000000000000004 0.0 1.6666666666666667
3.2 0.0 1.6666666666666667
4.0 0.0 1.6666666666666667
4.800000000000001 0.0 1.6666666666666667
5.6000000000000005 0.0 1.6666666666666667
6.4 0.0 1.6666666666666667
7.2 0.0 1.6666666666666667
8.0 0.0 1.6666666666666667
8.8 0.0 1.6666666666666667
9.600000000000001 0.0 1.6666666666666667
10.4 0.0 1.6666666666666667
11.200000000000001 0.0 1.6666666666666667
12.0 0.0 1.6666666666666667
12.8 0.0 1.6666666666666667
13.600000000000001 0.0 1.6666666666666667
14.4 0.0 1.6666666666666667
15.200000000000001 0.0 1.6666666666666667
16.0 0.0 1.6666666666666667
0.0 0.3333333333333333 1.6666666666666667
0.8 0.3333333333333333 1.6666666666666667
1.6 0.3333333333333333 1.6666666666666667
2.4000000000000004 0.3333333333333333 1.6666666666666667
3.2 0.3333333333333333 1.6666666666666667
4.0 0.3333333333333333 1.6666666666666667
4.800000000000001 0.3333333333333333 1.6666666666666667
5.6000000000000005 0.3333333333333333 1.6666666666666667
6.4 0.3333333333333333 1.6666666666666667
7.2 0.3333333333333333 1.6666666666666667
8.0 0.3333333333333333 1.6666666666666667
8.8 0.3333333333333333 1.6666666666666667
9.600000000000001 0.3333333333333333 1.6666666666666667
10.4 0.3333333333333333 1.6666666666666667
11.200000000000001 0.3333333333333333 1.6666666666666667
12.0 0.3333333333333333 1.6666666666666667
12.8 0.3333333333333333 1.6666666666666667
13.600000000000001 0.3333333333333333 1.6666666666666667
14.4 0.3333333333333333 1.6666666666666667
15.200000000000001 0.3333333333333333 1.6666666666666667
16.0 0.3333333333333333 1.6666666666666667
0.0 0.6666666666666666 1.6666666666666667
0.8 0.6666666666666666 1.6666666666666667
1.6 0.6666666666666666 1.6666666666666667
2.4000000000000004 0.6666666666666666 1.6666666666666667
3.2 0.6666666666666666 1.6666666666666667
4.0 0.6666666666666666 1.6666666666666667
4.800000000000001 0.6666666666666666 1.6666666666666667
5.6000000000000005 0.6666666666666666 1.6666666666666667
6.4 0.6666666666666666 1.6666666666666667
7.2 0.6666666666666666 1.6666666666666667
8.0 0.6666666666666666 1.6666666666666667
8.8 0.6666666666666666 1.6666666666666667
9.600000000000001 0.6666666666666666 1.6666666666666667
10.4 0.6666666666666666 1.6666666666666667
11.200000000000001 0.6666666666666666 1.6666666666666667
12.0 0.6666666666666666 1.6666666666666667
12.8 0.6666666666666666 1.6666666666666667
13.600000000000001 0.6666666666666666 1.6666666666666667
14.4 0.6666666666666666 1.6666666666666667
15.200000000000001 0.6666666666666666 1.6666666666666667
16.0 0.6666666666666666 1.6666666666666667
0.0 1.0 1.6666666666666667
0.8 1.0 1.6666666666666667
1.6 1.0 1.6666666666666667
2.4000000000000004 1.0 1.6666666666666667
3.2 1.0 1.6666666666666667
4.0 1.0 1.6666666666666667
4.800000000000001 1.0 1.6666666666666667
5.6000000000000005 1.0 1.6666666666666667
6.4 1.0 1.6666666666666667
7.2 1.0 1.6666666666666667
8.0 1.0 1.6666666666666667
8.8 1.0 1.6666666666666667
9.600000000000001 1.0 1.6666666666666667
10.4 1.0 1.6666666666666667
11.200000000000001 1.0 1.6666666666666667
12.0 1.0 1.6666666666666667
12.8 1.0 1.6666666666666667
13.600000000000001 1.0 1.6666666666666667
14.4 1.0 1.6666666666666667
15.200000000000001 1.0 1.6666666666666667
16.0 1.0 1.6666666666666667
0.0 1.3333333333333333 1.6666666666666667
0.8 1.3333333333333333 1.6666666666666667
1.6 1.3333333333333333 1.6666666666666667
2.4000000000000004 1.3333333333333333 1.6666666666666667
3.2 1.3333333333333333 1.6666666666666667
4.0 1.3333333333333333 1.6666666666666667
4.800000000000001 1.3333333333333333 1.6666666666666667
5.6000000000000005 1.3333333333333333 1.6666666666666667
6.4 1.3333333333333333 1.6666666666666667
7.2 1.3333333333333333 1.6666666666666667
8.0 1.3333333333333333 1.6666666666666667
8.8 1.3333333333333333 1.6666666666666667
9.600000000000001 1.3333333333333333 1.6666666666666667
10.4 1.3333333333333333 1.6666666666666667
11.200000000000001 1.3333333333333333 1.6666666666666667
12.0 1.3333333333333333 1.6666666666666667
12.8 1.3333333333333333 1.6666666666666667
13.600000000000001 1.3333333333333333 1.6666666666666667
14.4 1.3333333333333333 1.6666666666666667
15.200000000000001 1.3333333333333333 1.6666666666666667
16.0 1.3333333333333333 1.6666666666666667
0.0 1.6666666666666665 1.6666666666666667
0.8 1.6666666666666665 1.6666666666666667
1.6 1.6666666666666665 1.6666666666666667
2.4000000000000004 1.6666666666666665 1.6666666666666667
3.2 1.6666666666666665 1.6666666666666667
4.0 1.6666666666666665 1.6666666666666667
4.800000000000001 1.6666666666666665 1.6666666666666667
5.6000000000000005 1.6666666666666665 1.6666666666666667
6.4 1.6666666666666665 1.6666666666666667
7.2 1.6666666666666665 1.6666666666666667
8.0 1.6666666666666665 1.6666666666666667
8.8 1.6666666666666665 1.6666666666666667
9.600000000000001 1.6666666666666665 1.6666666666666667
10.4 1.6666666666666665 1.6666666666666667
11.200000000000001 1.6666666666666665 1.6666666666666667
12.0 1.6666666666666665 1.6666666666666667
12.8 1.6666666666666665 1.6666666666666667
13.600000000000001 1.6666666666666665 1.6666666666666667
14.4 1.6666666666666665 1.6666666666666667
15.200000000000001 1.6666666666666665 1.6666666666666667
16.0 1.6666666666666665 1.6666666666666667
0.0 2.0 1.6666666666666667
0.8 2.0 1.6666666666666667
1.6 2.0 1.6666666666666667
2.4000000000000004 2.0 1.6666666666666667
3.2 2.0 1.6666666666666667
4.0 2.0 1.6666666666666667
4.800000000000001 2.0 1.6666666666666667
5.6000000000000005 2.0 1.6666666666666667
6.4 2.0 1.6666666666666667
7.2 2.0 1.6666666666666667
8.0 2.0 1.6666666666666667
8.8 2.0 1.6666666666666667
9.600000000000001 2.0 1.6666666666666667
10.4 2.0 1.6666666666666667
11.200000000000001 2.0 1.6666666666666667
12.0 2.0 1.6666666666666667
12.8 2.0 1.6666666666666667
13.600000000000001 2.0 1.6666666666666667
14.4 2.0 1.6666666666666667
15.200000000000001 2.0 1.6666666666666667
16.0 2.0 1.6666666666666667
0.0 0.0 3.3333333333333335
0.8 0.0 3.3333333333333335
1.6 0.0 3.3333333333333335
2.4000000000000004 0.0 3.3333333333333335
[...]
POINT_DATA 1029
VECTORS Disp float
0.0 0.0 0.0
0.018292925237333738 -0.6633287422785981 0.015877565699753626
0.044050604308358866 -1.2499765946440828 0.03418772491735854
0.07967542850971028 -1.8150637963239347 0.04880932605535524
0.13037177013976775 -2.3432698516248314 0.062058586914119196
0.19685065939394547 -2.8221412713626197 0.07301301407630548
0.2788376968078015 -3.238519573862434 0.08121694232401878
0.3758369234912336 -3.579679966508773 0.08608756446095872
0.4865227404500777 -3.833217834769967 0.08721693603891051
0.6076021278699512 -3.98854240136963 0.08527244956675172
0.7336164547656546 -4.040298668672945 0.08351260460749327
0.8596755668175994 -3.989300248207097 0.08534256879937706
0.9808980470437462 -3.834751203929542 0.0873817727585741
1.091852654491344 -3.582021136130799 0.08640152539960491
1.189296028029303 -3.241707217487626 0.08177369095426754
1.2719811664114866 -2.8262004707143795 0.07396285442716281
1.3395223785967019 -2.3481770522741625 0.06361454943504734
1.3918019055832997 -1.8206862939744521 0.05133870960671208
1.4297326243225972 -1.2560550129936918 0.03792006146247662
1.4594677237908051 -0.6693739068594541 0.022543756506384946
1.487306891286736 0.0 -0.00012871375448756333
0.2603399499452629 -0.028325908340766547 -0.008336505403328809
0.2715763137691442 -0.6603842082755892 0.008317615495752956
0.2806348853195373 -1.253970343110398 0.021657412176564306
0.30397941453790833 -1.8197553855819848 0.032963222954702984
0.33691349259159775 -2.3500181332515044 0.04242567689739778
0.3803976338649873 -2.830693323005644 0.05021155163500203
0.4341829123251296 -3.2488929004373497 0.055981223466268513
0.49792800580588276 -3.591800603866246 0.05946873650165177
0.5707632799354685 -3.8468558243294853 0.06049117384363426
0.650569471984167 -4.00306293209218 0.059467696853183795
0.7337529667878322 -4.0548693233921895 0.058379072798283665
0.8169838194498813 -4.003833249002954 0.059443562845651506
0.8969401836167062 -3.8484164634736104 0.06046382378296453
0.9700534057015664 -3.5941887577134306 0.05948558139198179
1.0342481894304325 -3.2521550646227517 0.05612809580465171
1.088721166261541 -2.834866492905998 0.050627993986917086
1.133224660478033 -2.3550924499855728 0.043338085517851094
1.1676262815268523 -1.8256179438650517 0.03467361004227761
1.1930963749860852 -1.2603932938370623 0.02475836451765806
1.2051858399140332 -0.6669080265404643 0.012851374795235987
1.2180468121696726 -0.02989252888482409 -0.0033620875049492974
0.5061154163316659 -0.049181057051688404 -0.013623360788616477
0.5119093543731816 -0.6593960068536201 -0.0007372344846678696
0.5129203032061448 -1.254875931467189 0.008786279087993827
0.5219782777552691 -1.8225896053033948 0.015806711441062216
0.5375357283360978 -2.3538887029179483 0.021178316772724824
0.5584673221144749 -2.8357057901758584 0.025278181380031704
0.5847446799433589 -3.2549895557536006 0.02813150048541438
0.6162372007635596 -3.5989862067908223 0.029680035823757916
0.6527128899833365 -3.854980723712169 0.029894194755327806
0.6929139044759587 -4.011376651730751 0.02884768739109117
0.73386120648299 -4.062301764093528 0.02766787589616239
0.7748567756122525 -4.012160447529991 0.028729458548394277
0.8152099108174761 -3.856570381301143 0.029674629634177573
0.8519636961153715 -3.6014230666336537 0.029399247671922903
0.8838975985524061 -3.2583265584140344 0.027865619451136102
0.9108334300786903 -2.83998915282205 0.025160482311222934
0.9327112951426633 -2.359120926877335 0.02142533257816355
0.9495870961548754 -1.8286633530705114 0.01676129142369118
0.9604070366806486 -1.2615784803008563 0.010929348671906416
0.9628584794031814 -0.6656897395103821 0.002875961535439492
0.969351415242705 -0.0515942976059929 -0.008561510857191404
0.7446669217188892 -0.06254655329452863 -0.0183450862612498
0.7462239228697709 -0.6595635511059897 -0.009543940875387109
0.7411159663368893 -1.2541233304069326 -0.004219676801492776
0.7373064059779303 -1.823149594885509 -0.0017394484635403656
0.7352855571602263 -2.355051849285102 -0.0007027891134033648
0.7339249987896502 -2.837265667315944 -0.00046861826091874697
0.7330037729374567 -3.2569551995649455 -0.0007494618149329001
0.7326626315420965 -3.6014255227656804 -0.001390419010184668
0.7334270436611394 -3.8578796588196718 -0.0022476089747524475
0.7349750293889276 -4.013594348330955 -0.003489949582159017
0.7339577580468114 -4.061844742727746 -0.004989782962394098
0.7329889583959646 -4.0143922266546985 -0.003702968038205966
0.7346888176918301 -3.8594992993625064 -0.0026610169055932458
0.7357275174845055 -3.603911793635559 -0.001972027809327842
0.7358133504625617 -3.2603660950573548 -0.0014328805635053037
0.7355112540708131 -2.8416549482059352 -0.0011297461769141674
0.7350065103667376 -2.3604290607478546 -0.0011256458358037751
0.734120929676884 -1.8294161010824266 -0.0015743308726485893
0.7315575074800839 -1.2609070742151598 -0.002993580723657643
0.7272187626961097 -0.6656065935980632 -0.006839091723340812
0.7291613720671202 -0.06558638245447262 -0.014077831751327301
0.9812640983333089 -0.06970123130102336 -0.023197176950764797
0.9790794500954659 -0.6598310400681657 -0.017906698043766014
0.9683099478451104 -1.2522814546206706 -0.01701157524895581
0.9525950554822924 -1.82159030758551 -0.019186591614950604
0.9331360014425005 -2.353464261596491 -0.022544787189617825
0.9094008771309794 -2.835407450634335 -0.026189142855177587
0.8813204840259725 -3.254813012160401 -0.029618497192386656
0.8490655899179615 -3.5991109369974796 -0.0324730133642122
0.8138748856930653 -3.85568879628672 -0.03435599625975554
0.7772442245971236 -4.010089117862522 -0.035181370782264736
0.7340569132126697 -4.052375414393235 -0.03652714299588608
0.690918500668075 -4.010901561072174 -0.03549074647723479
0.6544400997851658 -3.857339170386013 -0.03496674365119595
0.6195208708744308 -3.6016470342731606 -0.033361501167756026
0.5876798111841259 -3.258296717497467 -0.030729202169105435
0.5601792869702508 -2.839896736249771 -0.027407790393328853
0.5372057723331353 -2.358975093100298 -0.02365858771947643
0.5186577099125832 -1.8280019012868562 -0.01983848624249518
0.503790346659334 -1.2590798864465684 -0.016695781134972526
0.4934605888446139 -0.6657146927249931 -0.016134004064910067
0.49148648443702964 -0.07313909064832735 -0.0198626181430443
1.2194438760920154 -0.07237823696080857 -0.02842332483351122
1.2143088367183716 -0.6595546679409713 -0.025797499037067295
1.1980951346154531 -1.249516515624893 -0.029299288005030826
1.1708872657866476 -1.8180643779155 -0.03605830355802549
1.1339274142648126 -2.34910126275259 -0.04367804692199665
1.0875698472246305 -2.8300866812021575 -0.051032074419991934
1.0319684703665153 -3.248574832618972 -0.057436014318542825
0.9675839329301049 -3.591900246156259 -0.06229110845699854
0.8948517529894918 -3.848251564177305 -0.06501013559758431
0.8194511305166966 -4.00185329072321 -0.0640848218056574
0.73417319371222 -4.032176790002249 -0.0628151385142128
0.6489458255649947 -4.002680957960368 -0.06449294744516068
0.573701592770998 -3.849933759742824 -0.06582345919278615
0.5012444218340477 -3.594487148731827 -0.06349548529168161
0.4372696761504122 -3.252130716545649 -0.05898813533352478
0.38222160823597245 -2.8346709577645512 -0.052829374264781306
0.3365386835558779 -2.3547271612561143 -0.045513547591847885
0.3002752271584343 -1.8245808009226498 -0.03756331190140756
0.2735817049367035 -1.2563229002715197 -0.02991648222285178
0.2575496615994826 -0.6653595933885235 -0.024949878718237208
0.2524677718873561 -0.07600757096611044 -0.025990652532176688
1.4611665399357419 -0.07292416469406421 -0.03384407613247603
1.455347780488583 -0.6586270021314253 -0.03323184095119909
1.4347492815283334 -1.2458815106233794 -0.04066330479494558
1.3956229822193145 -1.8125222328530872 -0.051600425175120826
1.3407253392244658 -2.341876934882299 -0.06305271663055742
1.2712668905408937 -2.8212056622450596 -0.07367969475358986
1.187487964987615 -3.2380253399904406 -0.08260131466470494
1.0899130845270109 -3.579937327450935 -0.08898602566590842
0.9794561812469201 -3.834175852528653 -0.09204746796692516
0.856539521193082 -3.990428409189265 -0.08878559587370712
0.7343239015734702 -3.9999999999999996 -0.0754505267527359
0.6121630228894982 -3.9912725707455876 -0.08929555354802053
0.48941446014908957 -3.835892155519929 -0.09307003820168959
0.37924887175355765 -3.5825776579220983 -0.09051756396252825
0.28209828316142394 -3.2416549568401885 -0.08461222925253399
0.19887143793432505 -2.82588145994536 -0.07608101053286695
0.13003460988125237 -2.3475987602785815 -0.0656443247748856
0.07565311109987198 -1.8191029776329302 -0.05399736649555742
0.036676738092056384 -1.2526743503100968 -0.042239381725256604
0.015864837196050106 -0.6643820203262111 -0.03327975254622688
0.009895116222897795 -0.0765940523119781 -0.03220736591284968
0.0 0.0 0.0
0.017111262526882408 -0.6269464961531773 0.010568355567378226
0.0433829447099629 -1.19901763075497 0.020185035096110297
0.0805722071691866 -1.7485201960486076 0.029122781404901234
0.1319052164940142 -2.2625299158870704 0.036020321978132284
0.19790118690039482 -2.729620715766857 0.04086202598227778
0.27832077441333325 -3.1380017698740916 0.043315757026252316
0.37278047421895166 -3.476348140363417 0.04315458038823051
0.4809063577411009 -3.733579453650032 0.04048485842064517
0.6022557636141388 -3.898052020941213 0.03644516067714236
0.7337646866135582 -3.9562630648356256 0.0341084233746942
0.8652888850555988 -3.898349350755298 0.03646917468947289
0.9866862480689017 -3.7341731961244045 0.04055021756578972
1.094899976013141 -3.4772361415324737 0.043299543914659996
1.1895024813227304 -3.1391791675035687 0.043606643344322515
1.2701492989427103 -2.73107443560115 0.04139923549992253
1.3365095632072763 -2.2642252372173717 0.03695599684294444
1.388446609623534 -1.7503724915418128 0.030617875268421055
1.4266177850345667 -1.200860670621508 0.022677846916565922
1.4548291210431097 -0.628709808620344 0.013443995982889614
1.4765504852216194 0.0 0.011800692038688818
0.25297364405004646 -0.01822832926828292 0.0015576991311550702
0.2632167020128838 -0.6260341255349651 0.004845438585736081
0.2757254986241651 -1.2030653635152215 0.012601809755585279
0.30070395379197135 -1.7535864540753487 0.018962273517873746
0.33487765911612105 -2.2694926976831193 0.023893561681083104
0.37883128349084205 -2.7383540715671053 0.027190543004594128
0.43239532755372556 -3.148530264177686 0.028804495745537097
0.4952859851696798 -3.488657643086222 0.028670392359705508
0.5671083578114838 -3.7477138665446965 0.026939107686053287
0.647317217237201 -3.9140551866675994 0.02426181040478943
0.7338311105977373 -3.9734306330260933 0.022550333165854378
0.8203600184399504 -3.9143557613641073 0.024199888114010904
0.9006158668503563 -3.7483143162187864 0.026828769016048498
0.9725236132323606 -3.4895563685855864 0.028543018404024803
1.0355510699356447 -3.1497236071207944 0.028717310486330413
1.0893273926970504 -2.7398315936674322 0.02723986372020365
1.1336145463990508 -2.271224895189481 0.024221518931429903
1.1683181692196367 -1.7554977796857993 0.019803939787668225
1.1942057235129468 -1.2050245886781386 0.01416989864114825
1.208308774583429 -0.6280470899375431 0.007976897926004764
1.2194652090779545 -0.01854259564236867 0.008930951289500201
0.49591112066778903 -0.0320954109858714 -0.0028044536528634774
0.5015899284067812 -0.6259115151706127 -0.00021877986620577215
0.5059503208067504 -1.204567228714583 0.004876434501169203
0.5173930484538262 -1.756670060560502 0.009021214083131838
0.5344767627382793 -2.273567359751229 0.01190024395523022
0.5563758958831354 -2.7435040537693833 0.013638142016785995
0.5830892678742627 -3.1547242641361235 0.01430715904767285
0.6143725682606841 -3.4958497181937807 0.013968701797159776
0.6497909128116406 -3.755917772903228 0.01270126047482724
0.6894413940323335 -3.923744022448267 0.01056199982450273
0.7339028972343129 -3.9849183469398755 0.008673274169624058
0.7783789857335741 -3.924049321553931 0.010415301039482275
0.8180747555577179 -3.75652783208045 0.012418020125977414
0.853574024311565 -3.4967632818913743 0.01357437178614856
0.8849833865129417 -3.1559383167848587 0.013853160785612273
0.9118855858367104 -2.745009771234713 0.013217440492063857
0.9340688074877959 -2.2753387154309594 0.011670009540610314
0.9515948000744983 -1.7586363404593781 0.009222077435898864
0.9637719582796227 -1.2066366377722968 0.005863581996058734
0.9688997818572191 -0.6278044841952283 0.0023838480352229626
0.9749182938495411 -0.03238957230088738 0.002764582153200398
0.733838482142464 -0.04141052801983346 -0.008683009598882971
0.7357633876860405 -0.6263398594886972 -0.005786036061669712
0.7336571988555841 -1.2045010131764173 -0.0028280568120251388
0.7325277901790948 -1.7575773180468075 -0.0009461948100188642
0.7323182877203658 -2.2749329361325135 -0.00012998544892850052
0.7321860593894965 -2.7452060465031956 -2.472423117500019e-05
0.7320457136131746 -3.156772955741574 -0.00039185925889239986
0.7318060752674174 -3.4981353420962082 -0.0010891457700239278
0.730934719860324 -3.7584071793995393 -0.0020845672043367834
0.7302247062653822 -3.927676909512039 -0.0038880223695941718
0.7339773448609057 -3.992267888737182 -0.006452285113016992
0.7377440394816462 -3.927988340692621 -0.004119658807765858
0.737077204026271 -3.759029560857503 -0.002540961693827406
0.736281212651514 -3.4990674510008932 -0.0017503641292199801
0.7361545682140281 -3.1580117102799714 -0.0012118878450912644
0.7361743133953637 -2.746743042292511 -0.0009103628635890419
0.7362676501687542 -2.27674275844857 -0.000911838704293784
0.73639505305399 -1.7595984268405693 -0.0013466348745508217
0.7357207085975037 -1.2065905546446947 -0.0024068619010904927
0.7339659473237128 -0.6280533529017164 -0.003815109401084529
0.736056771264012 -0.041719893902858005 -0.004369463734622441
0.9701320559751558 -0.04671534042242148 -0.014749791253187768
0.9686511682072299 -0.6267235020791418 -0.01157874059828483
0.9606028067095155 -1.203331825374129 -0.010494911769922361
0.9476351975696022 -1.7564355277031938 -0.010870332029605244
0.9302198227298726 -2.273590063577867 -0.012122629725592169
0.9080052946687802 -2.7435035033077524 -0.013665250104217905
0.8809687777770633 -3.1547329034825786 -0.01508330214529266
0.8493216222454738 -3.4956573766788335 -0.01614042794529706
0.8125313264141979 -3.7552241629125067 -0.016785031887002134
0.7709927994402509 -3.925625281368784 -0.01777884242018056
0.7340533489223486 -3.99668909015464 -0.021272476084713846
0.6971274588615357 -3.925944253449719 -0.018097009424081986
0.6556300697844063 -3.7558615620277647 -0.017418019119132565
0.6189096464950242 -3.49661166294821 -0.017074376544417007
0.5873624075289501 -3.156000194357426 -0.016278278699343857
0.5604567080176673 -2.7450738404932635 -0.015029072961082076
0.5384078866869685 -2.275438112870123 -0.013472762985964216
0.5212009548742865 -1.758493936374314 -0.011887828793328463
0.5084532133431423 -1.205402374267915 -0.01068217452962689
0.5005327961460938 -0.6282977705352093 -0.010281423397158712
0.4991350899249518 -0.047051641896764335 -0.011491699063592488
1.2071690950663763 -0.04899912663924193 -0.02031644104123703
1.2028113376411986 -0.6266447686277412 -0.01723206471677004
1.1889928676970993 -1.201190244475799 -0.018063557304882676
1.1644893715324045 -1.7533307454094487 -0.020686657049225027
1.1299065596911448 -2.269488591176781 -0.02399779471073246
1.0855670673207118 -2.738352862687175 -0.027148448794685337
1.0316484394384937 -3.1485063153833996 -0.029562066048875162
0.9683392911271977 -3.4884833208780623 -0.030825433743240083
0.8966458987248973 -3.746460050315991 -0.03089867325683188
0.8138406487621623 -3.916333739867489 -0.029936029349429474
0.734129731135791 -3.9993121293606437 -0.03364441562111948
0.6544320264874577 -3.916661753409539 -0.03034368637186075
0.5716663837811332 -3.7471153508826376 -0.03171479460329087
0.5000384860508762 -3.4894637561220327 -0.03204359295934467
0.4368183871986226 -3.1498063791770328 -0.031150839865386883
0.3830060454736403 -2.7399595935349073 -0.02902049754256201
0.33877680644416436 -2.271372193518285 -0.025961870330003307
0.30428192608865035 -1.755411221018492 -0.02238737295606753
0.2798055578793035 -1.2032355826248715 -0.018946352034888935
0.26595316378645156 -0.6281349253021272 -0.016646013099526187
0.2616040720836386 -0.049346586571908636 -0.017973788339907423
1.4462689396755743 -0.049728594071868124 -0.024589746293554305
1.4404141277057003 -0.6259741012132883 -0.022522617477208216
1.4211842499305085 -1.1980329560408476 -0.025574862916433183
1.3848061937727638 -1.7481637258589233 -0.030541506666525067
1.332952151236636 -2.2625093524072994 -0.035954910996427926
1.2665076577150403 -2.7295832984254123 -0.040700259899149244
1.1856960672218138 -3.137983214046164 -0.044012814195904415
1.0907872483609937 -3.476059586385694 -0.04536649222578487
0.98287813586498 -3.7331006136561182 -0.04441148688348007
0.8656143313688516 -3.897558955009464 -0.04092518681237414
0.7342035318224556 -3.9999999999999996 -0.03935852657248787
0.6028057491608461 -3.8978976325936463 -0.04142641790389309
0.48558064640777815 -3.7337769877152214 -0.04541988969187341
0.3777342839566632 -3.4770706584464 -0.046885284922863174
0.28290756947306595 -3.1393213375314803 -0.04602311591317203
0.20218630072577745 -2.7312310137674136 -0.04312654363824434
0.13581427615098488 -2.2644278174963732 -0.03860883452519123
0.08395928036789596 -1.7502563185828628 -0.033043954681234194
0.04743982173473498 -1.2000497456491188 -0.02730254636962673
0.02798019960280986 -0.6274141166685251 -0.02271777135705512
0.022026997414565996 -0.05006096342152844 -0.022976333382958635
0.0 0.0 0.0
0.023755017913798172 -0.6109818903707133 0.004566307815385652
0.049962527833904695 -1.172924514569147 0.008568919166612479
0.08628708718435192 -1.7142930447667395 0.012363768092766143
0.13614058119692393 -2.2220878710671257 0.015052991467534244
0.1997306069717156 -2.685368195886078 0.01641685735790714
0.2768724817644455 -3.093133634490054 0.016347581241938997
0.3676816950640421 -3.434816427115588 0.014869026933178184
0.47332627766760044 -3.6995340705525432 0.012293159697721677
0.5960563423542922 -3.873522368225297 0.009520178062201956
0.733801497025142 -3.936809360802784 0.008191945987423593
0.8715288897546367 -3.873451867905225 0.0095227340019195
0.9942029652614424 -3.6993713966968227 0.012308890219220369
1.0997447653785948 -3.434519166374429 0.014921008786781003
1.1903884399154225 -3.0926416190176513 0.01647414436396085
1.2672749210862124 -2.6846120910490936 0.01667247131640287
1.3304785198972942 -2.221007247797361 0.015507486659511988
1.3797418303185476 -1.7128705296622373 0.013090442403951809
1.415187085459186 -1.17121640252951 0.009748884846497774
1.4396081756008485 -0.6089434817636374 0.006562760843305606
1.4582322764983942 0.0 0.006696056036213788
0.2540571111734365 -0.015763292489946075 0.00016509997048518298
0.2645454590289971 -0.6108856872246189 0.0023433581732342224
0.2784069131847574 -1.1771360162439133 0.005407013284182842
0.3032491845656196 -1.7196399195135488 0.008169803262018396
0.3367570438682511 -2.2293560654325084 0.010161590614501097
0.37942308078196074 -2.694498293221893 0.011175383566982272
0.43111810901061925 -3.1042216832100507 0.01119586340231747
0.4919086828561069 -3.4480058498972594 0.010294647114908309
0.5623584818866676 -3.715184487062692 0.008702972599033621
0.6435021031102297 -3.892047479162408 0.006957675274895719
0.7337914057757452 -3.957202362449938 0.006077349675681225
0.824058711868926 -3.891970908890561 0.006906597286366976
0.9051338609883607 -3.7150080918644743 0.008608443487585422
0.975461102543887 -3.4476837514987517 0.01017411232787888
1.0360615521545096 -3.103687751198748 0.011080261062692349
1.0874781678671357 -2.69367352136808 0.011113532873716607
1.12974460329565 -2.228165526847614 0.010221206644942823
1.1626881863572915 -1.7180455061569515 0.008453636900537994
1.1866703173873574 -1.1751442718934122 0.0060678297170035905
1.1990923701211051 -0.6083768794990121 0.004163662967880347
1.2089852842474633 -0.01498464191569134 0.005314150769555014