# vtk DataFile Version 3.0
Some data
ASCII
DATASET UNSTRUCTURED_GRID
POINTS 1029 float
0.0 0.0 0.0
0.8 0.0 0.0
1.6 0.0 0.0
2.4000000000000004 0.0 0.0
3.2 0.0 0.0
4.0 0.0 0.0
4.800000000000001 0.0 0.0
5.6000000000000005 0.0 0.0
6.4 0.0 0.0
7.2 0.0 0.0
8.0 0.0 0.0
8.8 0.0 0.0
9.600000000000001 0.0 0.0
10.4 0.0 0.0
11.200000000000001 0.0 0.0
12.0 0.0 0.0
12.8 0.0 0.0
13.600000000000001 0.0 0.0
14.4 0.0 0.0
15.200000000000001 0.0 0.0
16.0 0.0 0.0
0.0 0.3333333333333333 0.0
0.8 0.3333333333333333 0.0
1.6 0.3333333333333333 0.0
2.4000000000000004 0.3333333333333333 0.0
3.2 0.3333333333333333 0.0
4.0 0.3333333333333333 0.0
4.800000000000001 0.3333333333333333 0.0
5.6000000000000005 0.3333333333333333 0.0
6.4 0.3333333333333333 0.0
7.2 0.3333333333333333 0.0
8.0 0.3333333333333333 0.0
8.8 0.3333333333333333 0.0
9.600000000000001 0.3333333333333333 0.0
10.4 0.3333333333333333 0.0
11.200000000000001 0.3333333333333333 0.0
12.0 0.3333333333333333 0.0
12.8 0.3333333333333333 0.0
13.600000000000001 0.3333333333333333 0.0
14.4 0.3333333333333333 0.0
15.200000000000001 0.3333333333333333 0.0
16.0 0.3333333333333333 0.0
0.0 0.6666666666666666 0.0
0.8 0.6666666666666666 0.0
1.6 0.6666666666666666 0.0
2.4000000000000004 0.6666666666666666 0.0
3.2 0.6666666666666666 0.0
4.0 0.6666666666666666 0.0
4.800000000000001 0.6666666666666666 0.0
5.6000000000000005 0.6666666666666666 0.0
6.4 0.6666666666666666 0.0
7.2 0.6666666666666666 0.0
8.0 0.6666666666666666 0.0
8.8 0.6666666666666666 0.0
9.600000000000001 0.6666666666666666 0.0
10.4 0.6666666666666666 0.0
11.200000000000001 0.6666666666666666 0.0
12.0 0.6666666666666666 0.0
12.8 0.6666666666666666 0.0
13.600000000000001 0.6666666666666666 0.0
14.4 0.6666666666666666 0.0
15.200000000000001 0.6666666666666666 0.0
16.0 0.6666666666666666 0.0
0.0 1.0 0.0
0.8 1.0 0.0
1.6 1.0 0.0
2.4000000000000004 1.0 0.0
3.2 1.0 0.0
4.0 1.0 0.0
4.800000000000001 1.0 0.0
5.6000000000000005 1.0 0.0
6.4 1.0 0.0
7.2 1.0 0.0
8.0 1.0 0.0
8.8 1.0 0.0
9.600000000000001 1.0 0.0
10.4 1.0 0.0
11.200000000000001 1.0 0.0
12.0 1.0 0.0
12.8 1.0 0.0
13.600000000000001 1.0 0.0
14.4 1.0 0.0
15.200000000000001 1.0 0.0
16.0 1.0 0.0
0.0 1.3333333333333333 0.0
0.8 1.3333333333333333 0.0
1.6 1.3333333333333333 0.0
2.4000000000000004 1.3333333333333333 0.0
3.2 1.3333333333333333 0.0
4.0 1.3333333333333333 0.0
4.800000000000001 1.3333333333333333 0.0
5.6000000000000005 1.3333333333333333 0.0
6.4 1.3333333333333333 0.0
7.2 1.3333333333333333 0.0
8.0 1.3333333333333333 0.0
8.8 1.3333333333333333 0.0
9.600000000000001 1.3333333333333333 0.0
10.4 1.3333333333333333 0.0
11.200000000000001 1.3333333333333333 0.0
12.0 1.3333333333333333 0.0
12.8 1.3333333333333333 0.0
13.600000000000001 1.3333333333333333 0.0
14.4 1.3333333333333333 0.0
15.200000000000001 1.3333333333333333 0.0
16.0 1.3333333333333333 0.0
0.0 1.6666666666666665 0.0
0.8 1.6666666666666665 0.0
1.6 1.6666666666666665 0.0
2.4000000000000004 1.6666666666666665 0.0
3.2 1.6666666666666665 0.0
4.0 1.6666666666666665 0.0
4.800000000000001 1.6666666666666665 0.0
5.6000000000000005 1.6666666666666665 0.0
6.4 1.6666666666666665 0.0
7.2 1.6666666666666665 0.0
8.0 1.6666666666666665 0.0
8.8 1.6666666666666665 0.0
9.600000000000001 1.6666666666666665 0.0
10.4 1.6666666666666665 0.0
11.200000000000001 1.6666666666666665 0.0
12.0 1.6666666666666665 0.0
12.8 1.6666666666666665 0.0
13.600000000000001 1.6666666666666665 0.0
14.4 1.6666666666666665 0.0
15.200000000000001 1.6666666666666665 0.0
16.0 1.6666666666666665 0.0
0.0 2.0 0.0
0.8 2.0 0.0
1.6 2.0 0.0
2.4000000000000004 2.0 0.0
3.2 2.0 0.0
4.0 2.0 0.0
4.800000000000001 2.0 0.0
5.6000000000000005 2.0 0.0
6.4 2.0 0.0
7.2 2.0 0.0
8.0 2.0 0.0
8.8 2.0 0.0
9.600000000000001 2.0 0.0
10.4 2.0 0.0
11.200000000000001 2.0 0.0
12.0 2.0 0.0
12.8 2.0 0.0
13.600000000000001 2.0 0.0
14.4 2.0 0.0
15.200000000000001 2.0 0.0
16.0 2.0 0.0
0.0 0.0 1.6666666666666667
0.8 0.0 1.6666666666666667
1.6 0.0 1.6666666666666667
2.4000000000000004 0.0 1.6666666666666667
3.2 0.0 1.6666666666666667
4.0 0.0 1.6666666666666667
4.800000000000001 0.0 1.6666666666666667
5.6000000000000005 0.0 1.6666666666666667
6.4 0.0 1.6666666666666667
7.2 0.0 1.6666666666666667
8.0 0.0 1.6666666666666667
8.8 0.0 1.6666666666666667
9.600000000000001 0.0 1.6666666666666667
10.4 0.0 1.6666666666666667
11.200000000000001 0.0 1.6666666666666667
12.0 0.0 1.6666666666666667
12.8 0.0 1.6666666666666667
13.600000000000001 0.0 1.6666666666666667
14.4 0.0 1.6666666666666667
15.200000000000001 0.0 1.6666666666666667
16.0 0.0 1.6666666666666667
0.0 0.3333333333333333 1.6666666666666667
0.8 0.3333333333333333 1.6666666666666667
1.6 0.3333333333333333 1.6666666666666667
2.4000000000000004 0.3333333333333333 1.6666666666666667
3.2 0.3333333333333333 1.6666666666666667
4.0 0.3333333333333333 1.6666666666666667
4.800000000000001 0.3333333333333333 1.6666666666666667
5.6000000000000005 0.3333333333333333 1.6666666666666667
6.4 0.3333333333333333 1.6666666666666667
7.2 0.3333333333333333 1.6666666666666667
8.0 0.3333333333333333 1.6666666666666667
8.8 0.3333333333333333 1.6666666666666667
9.600000000000001 0.3333333333333333 1.6666666666666667
10.4 0.3333333333333333 1.6666666666666667
11.200000000000001 0.3333333333333333 1.6666666666666667
12.0 0.3333333333333333 1.6666666666666667
12.8 0.3333333333333333 1.6666666666666667
13.600000000000001 0.3333333333333333 1.6666666666666667
14.4 0.3333333333333333 1.6666666666666667
15.200000000000001 0.3333333333333333 1.6666666666666667
16.0 0.3333333333333333 1.6666666666666667
0.0 0.6666666666666666 1.6666666666666667
0.8 0.6666666666666666 1.6666666666666667
1.6 0.6666666666666666 1.6666666666666667
2.4000000000000004 0.6666666666666666 1.6666666666666667
3.2 0.6666666666666666 1.6666666666666667
4.0 0.6666666666666666 1.6666666666666667
4.800000000000001 0.6666666666666666 1.6666666666666667
5.6000000000000005 0.6666666666666666 1.6666666666666667
6.4 0.6666666666666666 1.6666666666666667
7.2 0.6666666666666666 1.6666666666666667
8.0 0.6666666666666666 1.6666666666666667
8.8 0.6666666666666666 1.6666666666666667
9.600000000000001 0.6666666666666666 1.6666666666666667
10.4 0.6666666666666666 1.6666666666666667
11.200000000000001 0.6666666666666666 1.6666666666666667
12.0 0.6666666666666666 1.6666666666666667
12.8 0.6666666666666666 1.6666666666666667
13.600000000000001 0.6666666666666666 1.6666666666666667
14.4 0.6666666666666666 1.6666666666666667
15.200000000000001 0.6666666666666666 1.6666666666666667
16.0 0.6666666666666666 1.6666666666666667
0.0 1.0 1.6666666666666667
0.8 1.0 1.6666666666666667
1.6 1.0 1.6666666666666667
2.4000000000000004 1.0 1.6666666666666667
3.2 1.0 1.6666666666666667
4.0 1.0 1.6666666666666667
4.800000000000001 1.0 1.6666666666666667
5.6000000000000005 1.0 1.6666666666666667
6.4 1.0 1.6666666666666667
7.2 1.0 1.6666666666666667
8.0 1.0 1.6666666666666667
8.8 1.0 1.6666666666666667
9.600000000000001 1.0 1.6666666666666667
10.4 1.0 1.6666666666666667
11.200000000000001 1.0 1.6666666666666667
12.0 1.0 1.6666666666666667
12.8 1.0 1.6666666666666667
13.600000000000001 1.0 1.6666666666666667
14.4 1.0 1.6666666666666667
15.200000000000001 1.0 1.6666666666666667
16.0 1.0 1.6666666666666667
0.0 1.3333333333333333 1.6666666666666667
0.8 1.3333333333333333 1.6666666666666667
1.6 1.3333333333333333 1.6666666666666667
2.4000000000000004 1.3333333333333333 1.6666666666666667
3.2 1.3333333333333333 1.6666666666666667
4.0 1.3333333333333333 1.6666666666666667
4.800000000000001 1.3333333333333333 1.6666666666666667
5.6000000000000005 1.3333333333333333 1.6666666666666667
6.4 1.3333333333333333 1.6666666666666667
7.2 1.3333333333333333 1.6666666666666667
8.0 1.3333333333333333 1.6666666666666667
8.8 1.3333333333333333 1.6666666666666667
9.600000000000001 1.3333333333333333 1.6666666666666667
10.4 1.3333333333333333 1.6666666666666667
11.200000000000001 1.3333333333333333 1.6666666666666667
12.0 1.3333333333333333 1.6666666666666667
12.8 1.3333333333333333 1.6666666666666667
13.600000000000001 1.3333333333333333 1.6666666666666667
14.4 1.3333333333333333 1.6666666666666667
15.200000000000001 1.3333333333333333 1.6666666666666667
16.0 1.3333333333333333 1.6666666666666667
0.0 1.6666666666666665 1.6666666666666667
0.8 1.6666666666666665 1.6666666666666667
1.6 1.6666666666666665 1.6666666666666667
2.4000000000000004 1.6666666666666665 1.6666666666666667
3.2 1.6666666666666665 1.6666666666666667
4.0 1.6666666666666665 1.6666666666666667
4.800000000000001 1.6666666666666665 1.6666666666666667
5.6000000000000005 1.6666666666666665 1.6666666666666667
6.4 1.6666666666666665 1.6666666666666667
7.2 1.6666666666666665 1.6666666666666667
8.0 1.6666666666666665 1.6666666666666667
8.8 1.6666666666666665 1.6666666666666667
9.600000000000001 1.6666666666666665 1.6666666666666667
10.4 1.6666666666666665 1.6666666666666667
11.200000000000001 1.6666666666666665 1.6666666666666667
12.0 1.6666666666666665 1.6666666666666667
12.8 1.6666666666666665 1.6666666666666667
13.600000000000001 1.6666666666666665 1.6666666666666667
14.4 1.6666666666666665 1.6666666666666667
15.200000000000001 1.6666666666666665 1.6666666666666667
16.0 1.6666666666666665 1.6666666666666667
0.0 2.0 1.6666666666666667
0.8 2.0 1.6666666666666667
1.6 2.0 1.6666666666666667
2.4000000000000004 2.0 1.6666666666666667
3.2 2.0 1.6666666666666667
4.0 2.0 1.6666666666666667
4.800000000000001 2.0 1.6666666666666667
5.6000000000000005 2.0 1.6666666666666667
6.4 2.0 1.6666666666666667
7.2 2.0 1.6666666666666667
8.0 2.0 1.6666666666666667
8.8 2.0 1.6666666666666667
9.600000000000001 2.0 1.6666666666666667
10.4 2.0 1.6666666666666667
11.200000000000001 2.0 1.6666666666666667
12.0 2.0 1.6666666666666667
12.8 2.0 1.6666666666666667
13.600000000000001 2.0 1.6666666666666667
14.4 2.0 1.6666666666666667
15.200000000000001 2.0 1.6666666666666667
16.0 2.0 1.6666666666666667
0.0 0.0 3.3333333333333335
0.8 0.0 3.3333333333333335
1.6 0.0 3.3333333333333335
2.4000000000000004 0.0 3.3333333333333335
[...]
POINT_DATA 1029
VECTORS Disp float
0.0 0.0 0.0
0.03658585047457209 -1.326657484557362 0.031755131399424624
0.08810120861661767 -2.499953189288453 0.0683754498345895
0.15935085701931123 -3.6301275926482197 0.09761865211053546
0.26074354027940716 -4.6865397032501805 0.12411717382805132
0.39370131878778275 -5.644282542725873 0.14602602815242074
0.557675393615544 -6.477039147725652 0.1624338846478246
0.7516738469824437 -7.159359933018238 0.17217512892165687
0.9730454809001035 -7.666435669540549 0.17443387207745673
1.2152042557397362 -7.977084802739879 0.17054489913308474
1.4672329095309853 -8.080597337346571 0.16702520921445865
1.71935113363473 -7.978600496415181 0.1706851375981553
1.9617960940870027 -7.669502407860398 0.1747635455164805
2.183705308982281 -7.16404227226315 0.17280305079848474
2.37859205605829 -6.483414434977009 0.163547381907743
2.543962332822796 -5.652400941430669 0.1479257088535045
2.679044757193411 -4.696354104550092 0.12722909886914083
2.7836038111667394 -3.641372587950422 0.10267741921233012
2.8594652486454253 -2.512110025988488 0.07584012292370296
2.9189354475819353 -1.3387478137196038 0.045087513011370144
2.9746137825738894 0.0 -0.0002574275105343835
0.520679899890493 -0.05665181668156382 -0.016673010806685245
0.5431526275382488 -1.3207684165513338 0.016635230991435195
0.5612697706390102 -2.5079406862210845 0.04331482435300722
0.6079588290757516 -3.639510771164338 0.06592644590924424
0.6738269851831248 -4.700036266503534 0.08485135379459204
0.7607952677299101 -5.661386646011937 0.10042310326977177
0.868365824650206 -6.497785800875451 0.11196244693226307
0.9958560116117106 -7.183601207733233 0.11893747300297908
1.1415265598708695 -7.693711648659586 0.1209823476868606
1.3011389439682048 -8.006125864184915 0.11893539370589776
1.4675059335754095 -8.109738646785072 0.11675814559602682
1.633967638899411 -8.007666498006873 0.11888712569065704
1.7938803672330412 -7.696832926948521 0.12092764756519869
1.9401068114028126 -7.18837751542841 0.1189711627831675
2.0684963788605986 -6.5043101292472665 0.11225619160843416
2.177442332522903 -5.6697329858139325 0.10125598797289286
2.266449320955999 -4.710184899972921 0.0866761710346558
2.33525256305372 -3.6512358877316173 0.06934722008338685
2.3861927499722646 -2.520786587675232 0.049516729034019956
2.410371679828181 -1.3338160530816157 0.02570274958903737
2.436093624339514 -0.059785057769749975 -0.006724175011471187
1.0122308326633191 -0.09836211410342692 -0.02724672157725831
1.0238187087463457 -1.3187920137074023 -0.0014744689694035737
1.0258406064122638 -2.5097518629346656 0.017572558175866913
1.04395655551051 -3.645179210607155 0.031613422881956
1.0750714566721604 -4.707777405836411 0.04235663354522749
1.1169346442289108 -5.671411580352376 0.05055636275978863
1.1694893598866687 -6.5099791115079135 0.05626300097049995
1.2324744015270521 -7.1979724135823275 0.0593600716471335
1.305425779966606 -7.709961447424945 0.059788389510211086
1.3858278089518377 -8.022753303462062 0.05769537478166434
1.4677224129657984 -8.124603528187599 0.05533575179176093
1.5497135512242255 -8.024320895060965 0.05745891709611144
1.6304198216346726 -7.713140762603606 0.059349259267561745
1.7039273922304834 -7.202846133268872 0.05879849534298132
1.7677951971045909 -6.516653116829835 0.05573123890131744
1.8216668601572057 -5.679978305646056 0.05032096462140368
1.8654225902852024 -4.718241853756459 0.0428506651551869
1.8991741923096588 -3.6573267061425567 0.033522582846138835
1.9208140733612384 -2.5231569606028503 0.021858697342458988
1.9257169588063154 -1.331379479021449 0.005751923069406157
1.9387028304853784 -0.10318859521216242 -0.017123021715978605
1.4893338434377963 -0.125093106589119 -0.03669017252251901
1.492447845739557 -1.319127102212152 -0.019087881750843656
1.4822319326737927 -2.508246660814158 -0.008439353603107052
1.4746128119558561 -3.646299189771397 -0.003478896927256538
1.4705711143204496 -4.710103698570704 -0.0014055782270469097
1.467849997579284 -5.67453133463251 -0.0009372365221397814
1.4660075458748698 -6.513910399130567 -0.00149892363024488
1.465325263084129 -7.202851045532061 -0.0027808380208021585
1.466854087322229 -7.71575931763996 -0.004495217949997444
1.4699500587778196 -8.027188696662465 -0.006979899164860663
1.4679155160935047 -8.123689485455936 -0.009979565925373315
1.4659779167917268 -8.028784453310369 -0.007405936077131478
1.4693776353834445 -7.718998598726314 -0.005322033812034019
1.4714550349688116 -7.2078235872726895 -0.003944055619602922
1.4716267009249446 -6.52073219011651 -0.00286576112806257
1.4710225081414414 -5.683309896413787 -0.0022594923549665506
1.4700130207332853 -4.720858121497483 -0.0022512916728382477
1.468241859353584 -3.6588322021663915 -0.0031486617466176727
1.4631150149599725 -2.5218141484314507 -0.0059871614487274575
1.4544375253920214 -1.331213187196815 -0.013678183448194775
1.4583227441340463 -0.13117276490916782 -0.028155663504276885
1.9625281966666708 -0.1394024626021134 -0.04639435390154478
1.95815890019098 -1.3196620801364984 -0.03581339608760135
1.936619895690259 -2.5045629092416344 -0.03402315049803363
1.905190110964607 -3.6431806151713975 -0.03837318323008402
1.8662720028850215 -4.706928523193483 -0.04508957437949197
1.8188017542619526 -5.670814901269257 -0.052378285710676084
1.7626409680518995 -6.509626024321464 -0.05923699438518743
1.6981311798358583 -7.198221873995655 -0.06494602672891955
1.6277497713860913 -7.7113775925741015 -0.06871199252004744
1.554488449194252 -8.020178235725611 -0.07036274156510651
1.4681138264252704 -8.104750828786845 -0.07305428599237887
1.3818370013360277 -8.021803122145197 -0.07098149295522913
1.3088801995702024 -7.714678340773365 -0.06993348730330083
1.2390417417487392 -7.20329406854793 -0.06672300233653895
1.1753596223680935 -6.516593434996723 -0.06145840433934248
1.1203585739403088 -5.679793472501465 -0.054815580787897354
1.0744115446660365 -4.717950186202379 -0.047317175440269754
1.0373154198248935 -3.6560038025752375 -0.03967697248638697
1.007580693318349 -2.5181597728942693 -0.033391562271414064
0.9869211776888915 -1.3314293854506682 -0.03226800813137102
0.9829729688737081 -0.14627818129690603 -0.03972523628773767
2.43888775218412 -0.1447564739216858 -0.05684664966703345
2.428617673436829 -1.3191093358821098 -0.05159499807420099
2.3961902692309702 -2.4990330312500806 -0.058598576010186865
2.3417745315733547 -3.6361287558313977 -0.07211660711623999
2.267854828529669 -4.698202525505665 -0.08735609384426775
2.175139694449259 -5.660173362404879 -0.1020641488403216
2.0639369407329786 -6.4971496652385685 -0.11487202863753454
1.9351678658601488 -7.1838004923132335 -0.12458221691454371
1.7897035059789301 -7.696503128355271 -0.13002027119576812
1.6389022610333916 -8.003706581446952 -0.12816964361194055
1.4683463874244358 -8.064353580004713 -0.12563027702903065
1.2978916511299667 -8.005361915921595 -0.12898589489111206
1.1474031855419884 -7.699867519486937 -0.1316469183865369
1.0024888436680368 -7.188974297465263 -0.1269909705844674
0.8745393523007061 -6.504261433093122 -0.11797627066827623
0.7644432164717476 -5.66934191553102 -0.10565874853090136
0.6730773671114716 -4.709454322514008 -0.09102709518510008
0.6005504543164928 -3.6491616018468225 -0.07512662380428059
0.5471634098729566 -2.5126458005441537 -0.059832964447227195
0.5150993231984766 -1.3307191867777275 -0.04989975743805895
0.5049355437742096 -0.15201514193247812 -0.05198130506602835
2.922333079871611 -0.14584832938820083 -0.06768815226496026
2.910695560977297 -1.3172540042630079 -0.06646368190245829
2.8694985630567706 -2.4917630212470536 -0.08132660959000952
2.7912459644387053 -3.6250444657065444 -0.10320085035043407
2.6814506784489875 -4.6837538697650665 -0.12610543326138715
2.5425337810818096 -5.642411324490645 -0.14735938950753633
2.374975929975207 -6.476050679981522 -0.1652026293298766
2.1798261690539626 -7.159874654902573 -0.17797205133242994
1.958912362493753 -7.668351705057965 -0.18409493593452633
1.7130790423860645 -7.9808568183791095 -0.17757119174808483
1.4686478031470167 -8.0 -0.15090105350606692
1.2243260457791905 -7.98254514149212 -0.1785911070968647
0.9788289202983027 -7.671784311041127 -0.1861400764043709
0.7584977435071538 -7.165155315845805 -0.18103512792623624
0.5641965663227829 -6.483309913682198 -0.16922445850638265
0.3977428758684336 -5.651762919892666 -0.1521620210671918
0.2600692197621352 -4.69519752055891 -0.1312886495512613
0.1513062221992349 -3.6382059552673724 -0.1079947329926546
0.07335347618350944 -2.505348700621294 -0.08447876345207932
0.03172967439144699 -1.3287640406530985 -0.06655950509406852
0.019790232445130153 -0.15318810462421475 -0.06441473182739685
0.0 0.0 0.0
0.03422252505374943 -1.2538929923065474 0.021136711134705336
0.08676588941992522 -2.3980352615102833 0.040370070192121986
0.16114441433839707 -3.4970403920976483 0.0582455628096546
0.2638104329880902 -4.525059831774591 0.07204064395608602
0.39580237380087646 -5.459241431534183 0.08172405196434544
0.5566415488267832 -6.276003539748598 0.0866315140522779
0.7455609484380175 -6.952696280727234 0.08630916077618894
0.9618127154822835 -7.467158907300437 0.08096971684095845
1.2045115272282458 -7.796104041882672 0.07289032135386735
1.4675293732269163 -7.912526129671784 0.06821684674888867
1.7305777701109524 -7.796698701511339 0.07293834937837379
1.9733724961375458 -7.4683463922497895 0.08110043513092641
2.1897999520260854 -6.954472283066184 0.08659908782858472
2.3790049626454004 -6.278358335008544 0.0872132866878335
2.5402985978854624 -5.462148871203621 0.0827984709989157
2.673019126414699 -4.528450474436109 0.07391199368486752
2.7768932192473477 -3.5007449830847994 0.06123575053569281
2.8532355700695335 -2.401721341243926 0.04535569383185137
2.9096582420866937 -1.257419617241234 0.026887991964365955
2.9531009704437947 0.0 0.023601384075873817
0.5059472881001303 -0.03645665853659338 0.0031153982623040016
0.5264334040258136 -1.2520682510701269 0.009690877171419187
0.5514509972483801 -2.40613072703077 0.025203619511068018
0.6014079075839949 -3.507172908151139 0.03792454703559374
0.6697553182323087 -4.538985395366708 0.04778712336197391
0.7576625669817696 -5.476708143134688 0.054381086008956886
0.8647906551075578 -6.297060528355823 0.057608991490795285
0.9905719703394664 -6.977315286172834 0.057340784719082646
1.1342167156230247 -7.495427733089726 0.05387821537171273
1.2946344344744034 -7.8281103733354795 0.04852362080909661
1.4676622211953811 -7.946861266052656 0.04510066633114201
1.6407200368797394 -7.8287115227289705 0.04839977622738318
1.8012317337005597 -7.496628632438628 0.053657538031380334
1.9450472264646104 -6.979112737172423 0.05708603680725101
2.0711021398712526 -6.299447214242996 0.05743462097177565
2.178654785394136 -5.479663187336218 0.05447972743941439
2.2672290927982117 -4.542449790380323 0.04844303786176832
2.3366363384394755 -3.510995559372806 0.03960787957412893
2.388411447026168 -2.4100491773571897 0.02833979728097496
2.4166175491671713 -1.2560941798756209 0.015953795850570954
2.4389304181562372 -0.03708519128480181 0.01786190257748184
0.9918222413356673 -0.06419082197179554 -0.0056089073057378706
1.003179856813654 -1.2518230303414102 -0.0004375597324676679
1.0119006416135845 -2.4091344574294946 0.009752869002229917
1.0347860969077343 -3.51334012112142 0.018042428166100605
1.0689535254766396 -4.547134719502928 0.023800487910250422
1.1127517917663559 -5.487008107539262 0.027276284033306692
1.166178535748633 -6.309448528272691 0.028614318095022767
1.2287451365214719 -6.991699436387932 0.02793740359393593
1.2995818256233425 -7.511835545806762 0.025402520949206347
1.3788827880646992 -7.847488044896772 0.02112399964847547
1.4678057944685892 -7.969836693880197 0.017346548338611614
1.5567579714670614 -7.8480986431085835 0.020830602078258344
1.6361495111153745 -7.513055664161953 0.024836040251171046
1.7071480486230894 -6.9935265637839885 0.027148743571429983
1.7699667730258737 -6.3118766335711545 0.027706321570264796
1.823771171673448 -5.4900195424707805 0.02643488098306846
1.8681376149756566 -4.550677430863299 0.023340019080058175
1.9031896001491029 -3.517272680919961 0.018444154870537847
1.9275439165593844 -2.4132732755454915 0.011727163990753919
1.9377995637145726 -1.2556089683909961 0.004767696068977747
1.949836587699251 -0.06477914460188473 0.005529164304850464
1.4676769642850578 -0.08282105603973322 -0.017366019197778224
1.4715267753722039 -1.2526797189775802 -0.01157207212340018
1.4673143977112784 -2.4090020263531673 -0.005656113624162026
1.4650555803583065 -3.5151546360940293 -0.0018923896202112172
1.464636575440832 -4.549865872265509 -0.00025997089808646933
1.4643721187790915 -5.490412093006912 -4.9448462644508795e-05
1.464091427226444 -6.313545911483634 -0.0007837185181513844
1.463612150534926 -6.996270684192726 -0.002178291540482175
1.461869439720727 -7.516814358799371 -0.004169134409174054
1.460449412530831 -7.855353819024326 -0.007776044739770315
1.467954689721839 -7.984535777474679 -0.012904570226715413
1.4754880789632845 -7.855976681386002 -0.00823931761628827
1.4741544080525544 -7.518059121716093 -0.005081923388496718
1.4725624253030543 -6.9981349020030255 -0.003500728259373233
1.4723091364280678 -6.31602342056138 -0.002423775691213276
1.4723486267907466 -5.493486084586366 -0.0018207257283075948
1.4725353003375352 -4.55348551689855 -0.0018236774098149722
1.4727901061079949 -3.5191968536823204 -0.002693269750415952
1.4714414171950125 -2.413181109290299 -0.004813723803587614
1.4679318946474291 -1.25610670580397 -0.007630218803669968
1.4721135425280416 -0.08343978780585805 -0.008738927470833303
1.940264111950474 -0.09343068084491507 -0.029499582506387234
1.937302336414627 -1.253447004158472 -0.023157481196633085
1.921205613419185 -2.4066636507485755 -0.020989823539962763
1.8952703951393397 -3.5128710554068077 -0.02174066405939021
1.8604396454598593 -4.547180127156192 -0.024245259451432834
1.8160105893376532 -5.487007006616016 -0.027330500208762647
1.761937555554208 -6.309465806965616 -0.030166604290992532
1.6986432444910198 -6.991314753357988 -0.032280855891070756
1.6250626528284822 -7.510448325825349 -0.03357006377455622
1.5419855988806104 -7.851250562737805 -0.03555768484099192
1.4681066978447932 -7.993378180309518 -0.042544952170137394
1.394254917723129 -7.851888506900204 -0.03619401884896944
1.3112601395689043 -7.511723124056582 -0.03483603823916312
1.237819292990125 -6.993223325897663 -0.03414875308984172
1.174724815057947 -6.312000388716265 -0.03255655739979941
1.1209134160353438 -5.490147680987872 -0.03005814592336949
1.0768157733738972 -4.550876225741667 -0.026945525973219312
1.0424019097484971 -3.5169878727498074 -0.023775657588025818
1.0169064266861747 -2.4108047485367283 -0.021364349060705966
1.0010655922920566 -1.2565955410709713 -0.02056284679585321
0.9982701798497731 -0.09410328379368284 -0.022983398128812393
2.4143381901329573 -0.09799825327855795 -0.04063288208248464
2.405622675282599 -1.253289537255672 -0.03446412943360489
2.377985735394394 -2.40238048895192 -0.036127114609886685
2.3289787430649533 -3.506661490819301 -0.04137331409863697
2.259813119382432 -4.538977182354016 -0.0479955894217297
2.171134134641526 -5.47670572537482 -0.05429689758973098
2.063296878877052 -6.297012630767321 -0.0591241320981924
1.936678582254462 -6.9769666417564675 -0.06165086748701604
1.7932917974498555 -7.492920100632247 -0.061797346514276694
1.6276812975244583 -7.832667479735256 -0.05987205869952896
1.4682594622717506 -7.998624258721409 -0.06728883124299317
1.308864052975074 -7.833323506819855 -0.06068737274456887
1.143332767562452 -7.494230701766398 -0.06342958920754273
1.0000769721018952 -6.9789275122453 -0.06408718591977416
0.873636774397316 -6.299612758355494 -0.062301679731964155
0.7660120909472771 -5.4799191870711965 -0.05804099508640414
0.6775536128882476 -4.542744387037971 -0.0519237406613669
0.6085638521771249 -3.510822442038163 -0.044774745913563375
0.5596111157583716 -2.406471165250663 -0.03789270407127455
0.5319063275726366 -1.2562698506047978 -0.03329202620062219
0.5232081441669963 -0.09869317314397974 -0.035947576681476634
2.892537879351402 -0.09945718814380633 -0.049179492587118304
2.880828255411637 -1.2519482024267723 -0.04504523495447979
2.8423684998612377 -2.3960659120819967 -0.051149725832991606
2.769612387545739 -3.4963274517182383 -0.0610830133332463
2.6659043024734213 -4.52501870481508 -0.07190982199313484
2.533015315430181 -5.459166596851272 -0.08140051979868686
2.371392134443676 -6.275966428092846 -0.08802562839229829
2.1815744967220247 -6.952119172771724 -0.09073298445217136
1.965756271730022 -7.466201227312552 -0.08882297376763866
1.7312286627377949 -7.795117910019217 -0.08185037362547126
1.4684070636451465 -8.0 -0.07871705314575389
1.205611498322055 -7.7957952651879925 -0.082852835808677
0.9711612928158507 -7.4675539754315645 -0.09083977938477726
0.7554685679135245 -6.954141316894054 -0.09377056984688427
0.5658151389462356 -6.278642675064357 -0.09204623182761784
0.4043726014515456 -5.462462027536198 -0.08625308727783387
0.2716285523018425 -4.528855634994104 -0.0772176690518094
0.16791856073552516 -3.500512637166879 -0.0660879093639519
0.09487964346910913 -2.400099491299149 -0.05460509274079488
0.055960399205196826 -1.254828233337594 -0.04543554271570814
0.04405399482869966 -0.1001219268432192 -0.04595266676760364
0.0 0.0 0.0
0.047510035827664054 -1.2219637807416142 0.009132615630725925
0.09992505566792056 -2.345849029138557 0.017137838333129676
0.1725741743688697 -3.4285860895338405 0.024727536185394083
0.2722811623940693 -4.444175742134621 0.03010598293488843
0.39946121394371936 -5.370736391772521 0.03283371471560722
0.5537449635292109 -6.186267268980309 0.032695162483635486
0.7353633901283714 -6.8696328542312415 0.02973805386606537
0.9466525553354235 -7.399068141105074 0.024586319395072345
1.1921126847086945 -7.747044736450588 0.01904035612392081
1.4676029940503004 -7.873618721605727 0.016383891974286444
1.7430577795092437 -7.746903735810827 0.019045468003221086
1.988405930522849 -7.398742793394282 0.024617780437799917
2.199489530757206 -6.869038332749739 0.02984201757285924
2.380776879830886 -6.185283238036282 0.03294828872711709
2.5345498421726043 -5.369224182099389 0.03334494263188477
2.6609570397948983 -4.442014495595779 0.031014973317975196
2.759483660637483 -3.4257410593254063 0.026180884806736596
2.830374170918838 -2.3424328050597203 0.01949776969170546
2.879216351202244 -1.21788696352769 0.013125521685201718
2.916464552997383 0.0 0.013392112070931564
0.5081142223469683 -0.03152658497991854 0.0003301999409635726
0.5290909180581117 -1.2217713744494145 0.004686716346420291
0.5568138263696633 -2.3542720324881103 0.010814026568264896
0.6064983691314263 -3.4392798390274577 0.016339606523885906
0.6735140877367276 -4.4587121308653845 0.02032318122880275
0.7588461615641713 -5.388996586444144 0.02235076713371954
0.8622362180215056 -6.20844336642028 0.022391726804337944
0.9838173657124624 -6.896011699794609 0.020589294229459338
1.1247169637735406 -7.430368974125365 0.01740594519762471
1.287004206220602 -7.784094958324799 0.013915350549274598
1.467582811551576 -7.914404724900024 0.0121546993507557
1.6481174237379148 -7.783941817781472 0.013813194572070699
1.810267721976792 -7.4300161837295615 0.017216886974450323
1.9509222050878547 -6.895367502998365 0.02034822465495809
2.0721231043091266 -6.207375502398502 0.022160522124492352
2.1749563357344543 -5.387347042737408 0.022227065746440466
2.2594892065915566 -4.456331053696286 0.020442413288781828
2.325376372714904 -3.43609101231487 0.01690727379986249
2.3733406347750856 -2.3502885437875274 0.012135659432675633
2.398184740242613 -1.2167537589984403 0.008327325934324425
2.4179705684953596 -0.02996928383141999 0.010628301537598913
0.9883316929776564 -0.05434721081527239 -0.003166797312403008
0.9991196395830844 -1.221253030866242 -0.0001827404409696631
1.0092779154703286 -2.358129004845371 0.004007236868994981
1.033322937079672 -3.446057405397778 0.0076827492450660785
1.0676430792829597 -4.467570937203885 0.01015994090898893