# vtk DataFile Version 3.0
Some data
ASCII
DATASET UNSTRUCTURED_GRID
POINTS 1029 float
0.0 0.0 0.0
0.8 0.0 0.0
1.6 0.0 0.0
2.4000000000000004 0.0 0.0
3.2 0.0 0.0
4.0 0.0 0.0
4.800000000000001 0.0 0.0
5.6000000000000005 0.0 0.0
6.4 0.0 0.0
7.2 0.0 0.0
8.0 0.0 0.0
8.8 0.0 0.0
9.600000000000001 0.0 0.0
10.4 0.0 0.0
11.200000000000001 0.0 0.0
12.0 0.0 0.0
12.8 0.0 0.0
13.600000000000001 0.0 0.0
14.4 0.0 0.0
15.200000000000001 0.0 0.0
16.0 0.0 0.0
0.0 0.3333333333333333 0.0
0.8 0.3333333333333333 0.0
1.6 0.3333333333333333 0.0
2.4000000000000004 0.3333333333333333 0.0
3.2 0.3333333333333333 0.0
4.0 0.3333333333333333 0.0
4.800000000000001 0.3333333333333333 0.0
5.6000000000000005 0.3333333333333333 0.0
6.4 0.3333333333333333 0.0
7.2 0.3333333333333333 0.0
8.0 0.3333333333333333 0.0
8.8 0.3333333333333333 0.0
9.600000000000001 0.3333333333333333 0.0
10.4 0.3333333333333333 0.0
11.200000000000001 0.3333333333333333 0.0
12.0 0.3333333333333333 0.0
12.8 0.3333333333333333 0.0
13.600000000000001 0.3333333333333333 0.0
14.4 0.3333333333333333 0.0
15.200000000000001 0.3333333333333333 0.0
16.0 0.3333333333333333 0.0
0.0 0.6666666666666666 0.0
0.8 0.6666666666666666 0.0
1.6 0.6666666666666666 0.0
2.4000000000000004 0.6666666666666666 0.0
3.2 0.6666666666666666 0.0
4.0 0.6666666666666666 0.0
4.800000000000001 0.6666666666666666 0.0
5.6000000000000005 0.6666666666666666 0.0
6.4 0.6666666666666666 0.0
7.2 0.6666666666666666 0.0
8.0 0.6666666666666666 0.0
8.8 0.6666666666666666 0.0
9.600000000000001 0.6666666666666666 0.0
10.4 0.6666666666666666 0.0
11.200000000000001 0.6666666666666666 0.0
12.0 0.6666666666666666 0.0
12.8 0.6666666666666666 0.0
13.600000000000001 0.6666666666666666 0.0
14.4 0.6666666666666666 0.0
15.200000000000001 0.6666666666666666 0.0
16.0 0.6666666666666666 0.0
0.0 1.0 0.0
0.8 1.0 0.0
1.6 1.0 0.0
2.4000000000000004 1.0 0.0
3.2 1.0 0.0
4.0 1.0 0.0
4.800000000000001 1.0 0.0
5.6000000000000005 1.0 0.0
6.4 1.0 0.0
7.2 1.0 0.0
8.0 1.0 0.0
8.8 1.0 0.0
9.600000000000001 1.0 0.0
10.4 1.0 0.0
11.200000000000001 1.0 0.0
12.0 1.0 0.0
12.8 1.0 0.0
13.600000000000001 1.0 0.0
14.4 1.0 0.0
15.200000000000001 1.0 0.0
16.0 1.0 0.0
0.0 1.3333333333333333 0.0
0.8 1.3333333333333333 0.0
1.6 1.3333333333333333 0.0
2.4000000000000004 1.3333333333333333 0.0
3.2 1.3333333333333333 0.0
4.0 1.3333333333333333 0.0
4.800000000000001 1.3333333333333333 0.0
5.6000000000000005 1.3333333333333333 0.0
6.4 1.3333333333333333 0.0
7.2 1.3333333333333333 0.0
8.0 1.3333333333333333 0.0
8.8 1.3333333333333333 0.0
9.600000000000001 1.3333333333333333 0.0
10.4 1.3333333333333333 0.0
11.200000000000001 1.3333333333333333 0.0
12.0 1.3333333333333333 0.0
12.8 1.3333333333333333 0.0
13.600000000000001 1.3333333333333333 0.0
14.4 1.3333333333333333 0.0
15.200000000000001 1.3333333333333333 0.0
16.0 1.3333333333333333 0.0
0.0 1.6666666666666665 0.0
0.8 1.6666666666666665 0.0
1.6 1.6666666666666665 0.0
2.4000000000000004 1.6666666666666665 0.0
3.2 1.6666666666666665 0.0
4.0 1.6666666666666665 0.0
4.800000000000001 1.6666666666666665 0.0
5.6000000000000005 1.6666666666666665 0.0
6.4 1.6666666666666665 0.0
7.2 1.6666666666666665 0.0
8.0 1.6666666666666665 0.0
8.8 1.6666666666666665 0.0
9.600000000000001 1.6666666666666665 0.0
10.4 1.6666666666666665 0.0
11.200000000000001 1.6666666666666665 0.0
12.0 1.6666666666666665 0.0
12.8 1.6666666666666665 0.0
13.600000000000001 1.6666666666666665 0.0
14.4 1.6666666666666665 0.0
15.200000000000001 1.6666666666666665 0.0
16.0 1.6666666666666665 0.0
0.0 2.0 0.0
0.8 2.0 0.0
1.6 2.0 0.0
2.4000000000000004 2.0 0.0
3.2 2.0 0.0
4.0 2.0 0.0
4.800000000000001 2.0 0.0
5.6000000000000005 2.0 0.0
6.4 2.0 0.0
7.2 2.0 0.0
8.0 2.0 0.0
8.8 2.0 0.0
9.600000000000001 2.0 0.0
10.4 2.0 0.0
11.200000000000001 2.0 0.0
12.0 2.0 0.0
12.8 2.0 0.0
13.600000000000001 2.0 0.0
14.4 2.0 0.0
15.200000000000001 2.0 0.0
16.0 2.0 0.0
0.0 0.0 1.6666666666666667
0.8 0.0 1.6666666666666667
1.6 0.0 1.6666666666666667
2.4000000000000004 0.0 1.6666666666666667
3.2 0.0 1.6666666666666667
4.0 0.0 1.6666666666666667
4.800000000000001 0.0 1.6666666666666667
5.6000000000000005 0.0 1.6666666666666667
6.4 0.0 1.6666666666666667
7.2 0.0 1.6666666666666667
8.0 0.0 1.6666666666666667
8.8 0.0 1.6666666666666667
9.600000000000001 0.0 1.6666666666666667
10.4 0.0 1.6666666666666667
11.200000000000001 0.0 1.6666666666666667
12.0 0.0 1.6666666666666667
12.8 0.0 1.6666666666666667
13.600000000000001 0.0 1.6666666666666667
14.4 0.0 1.6666666666666667
15.200000000000001 0.0 1.6666666666666667
16.0 0.0 1.6666666666666667
0.0 0.3333333333333333 1.6666666666666667
0.8 0.3333333333333333 1.6666666666666667
1.6 0.3333333333333333 1.6666666666666667
2.4000000000000004 0.3333333333333333 1.6666666666666667
3.2 0.3333333333333333 1.6666666666666667
4.0 0.3333333333333333 1.6666666666666667
4.800000000000001 0.3333333333333333 1.6666666666666667
5.6000000000000005 0.3333333333333333 1.6666666666666667
6.4 0.3333333333333333 1.6666666666666667
7.2 0.3333333333333333 1.6666666666666667
8.0 0.3333333333333333 1.6666666666666667
8.8 0.3333333333333333 1.6666666666666667
9.600000000000001 0.3333333333333333 1.6666666666666667
10.4 0.3333333333333333 1.6666666666666667
11.200000000000001 0.3333333333333333 1.6666666666666667
12.0 0.3333333333333333 1.6666666666666667
12.8 0.3333333333333333 1.6666666666666667
13.600000000000001 0.3333333333333333 1.6666666666666667
14.4 0.3333333333333333 1.6666666666666667
15.200000000000001 0.3333333333333333 1.6666666666666667
16.0 0.3333333333333333 1.6666666666666667
0.0 0.6666666666666666 1.6666666666666667
0.8 0.6666666666666666 1.6666666666666667
1.6 0.6666666666666666 1.6666666666666667
2.4000000000000004 0.6666666666666666 1.6666666666666667
3.2 0.6666666666666666 1.6666666666666667
4.0 0.6666666666666666 1.6666666666666667
4.800000000000001 0.6666666666666666 1.6666666666666667
5.6000000000000005 0.6666666666666666 1.6666666666666667
6.4 0.6666666666666666 1.6666666666666667
7.2 0.6666666666666666 1.6666666666666667
8.0 0.6666666666666666 1.6666666666666667
8.8 0.6666666666666666 1.6666666666666667
9.600000000000001 0.6666666666666666 1.6666666666666667
10.4 0.6666666666666666 1.6666666666666667
11.200000000000001 0.6666666666666666 1.6666666666666667
12.0 0.6666666666666666 1.6666666666666667
12.8 0.6666666666666666 1.6666666666666667
13.600000000000001 0.6666666666666666 1.6666666666666667
14.4 0.6666666666666666 1.6666666666666667
15.200000000000001 0.6666666666666666 1.6666666666666667
16.0 0.6666666666666666 1.6666666666666667
0.0 1.0 1.6666666666666667
0.8 1.0 1.6666666666666667
1.6 1.0 1.6666666666666667
2.4000000000000004 1.0 1.6666666666666667
3.2 1.0 1.6666666666666667
4.0 1.0 1.6666666666666667
4.800000000000001 1.0 1.6666666666666667
5.6000000000000005 1.0 1.6666666666666667
6.4 1.0 1.6666666666666667
7.2 1.0 1.6666666666666667
8.0 1.0 1.6666666666666667
8.8 1.0 1.6666666666666667
9.600000000000001 1.0 1.6666666666666667
10.4 1.0 1.6666666666666667
11.200000000000001 1.0 1.6666666666666667
12.0 1.0 1.6666666666666667
12.8 1.0 1.6666666666666667
13.600000000000001 1.0 1.6666666666666667
14.4 1.0 1.6666666666666667
15.200000000000001 1.0 1.6666666666666667
16.0 1.0 1.6666666666666667
0.0 1.3333333333333333 1.6666666666666667
0.8 1.3333333333333333 1.6666666666666667
1.6 1.3333333333333333 1.6666666666666667
2.4000000000000004 1.3333333333333333 1.6666666666666667
3.2 1.3333333333333333 1.6666666666666667
4.0 1.3333333333333333 1.6666666666666667
4.800000000000001 1.3333333333333333 1.6666666666666667
5.6000000000000005 1.3333333333333333 1.6666666666666667
6.4 1.3333333333333333 1.6666666666666667
7.2 1.3333333333333333 1.6666666666666667
8.0 1.3333333333333333 1.6666666666666667
8.8 1.3333333333333333 1.6666666666666667
9.600000000000001 1.3333333333333333 1.6666666666666667
10.4 1.3333333333333333 1.6666666666666667
11.200000000000001 1.3333333333333333 1.6666666666666667
12.0 1.3333333333333333 1.6666666666666667
12.8 1.3333333333333333 1.6666666666666667
13.600000000000001 1.3333333333333333 1.6666666666666667
14.4 1.3333333333333333 1.6666666666666667
15.200000000000001 1.3333333333333333 1.6666666666666667
16.0 1.3333333333333333 1.6666666666666667
0.0 1.6666666666666665 1.6666666666666667
0.8 1.6666666666666665 1.6666666666666667
1.6 1.6666666666666665 1.6666666666666667
2.4000000000000004 1.6666666666666665 1.6666666666666667
3.2 1.6666666666666665 1.6666666666666667
4.0 1.6666666666666665 1.6666666666666667
4.800000000000001 1.6666666666666665 1.6666666666666667
5.6000000000000005 1.6666666666666665 1.6666666666666667
6.4 1.6666666666666665 1.6666666666666667
7.2 1.6666666666666665 1.6666666666666667
8.0 1.6666666666666665 1.6666666666666667
8.8 1.6666666666666665 1.6666666666666667
9.600000000000001 1.6666666666666665 1.6666666666666667
10.4 1.6666666666666665 1.6666666666666667
11.200000000000001 1.6666666666666665 1.6666666666666667
12.0 1.6666666666666665 1.6666666666666667
12.8 1.6666666666666665 1.6666666666666667
13.600000000000001 1.6666666666666665 1.6666666666666667
14.4 1.6666666666666665 1.6666666666666667
15.200000000000001 1.6666666666666665 1.6666666666666667
16.0 1.6666666666666665 1.6666666666666667
0.0 2.0 1.6666666666666667
0.8 2.0 1.6666666666666667
1.6 2.0 1.6666666666666667
2.4000000000000004 2.0 1.6666666666666667
3.2 2.0 1.6666666666666667
4.0 2.0 1.6666666666666667
4.800000000000001 2.0 1.6666666666666667
5.6000000000000005 2.0 1.6666666666666667
6.4 2.0 1.6666666666666667
7.2 2.0 1.6666666666666667
8.0 2.0 1.6666666666666667
8.8 2.0 1.6666666666666667
9.600000000000001 2.0 1.6666666666666667
10.4 2.0 1.6666666666666667
11.200000000000001 2.0 1.6666666666666667
12.0 2.0 1.6666666666666667
12.8 2.0 1.6666666666666667
13.600000000000001 2.0 1.6666666666666667
14.4 2.0 1.6666666666666667
15.200000000000001 2.0 1.6666666666666667
16.0 2.0 1.6666666666666667
0.0 0.0 3.3333333333333335
0.8 0.0 3.3333333333333335
1.6 0.0 3.3333333333333335
2.4000000000000004 0.0 3.3333333333333335
[...]
POINT_DATA 1029
VECTORS Disp float
0.0 0.0 0.0
0.012805047666141774 -0.46433011959500436 0.011114295989834594
0.030835423015859398 -0.8749836162508327 0.023931407442161955
0.05577279995680544 -1.2705446574267247 0.03416652823876391
0.09126023909784732 -1.6402888961373372 0.04344101083989961
0.13779546157576988 -1.975498889953779 0.051109109853430715
0.1951863877654652 -2.2669637017036375 0.056851859626831425
0.26308584644386557 -2.5057759765560794 0.06026129512269416
0.3405659183150581 -2.6832524843389303 0.06105185522726956
0.42532148950898147 -2.7919796809586908 0.05969071469676286
0.5135315183359858 -2.8282090680710024 0.05845882322528962
0.6017728967723573 -2.7925101737448816 0.05973979815961645
0.686628632930662 -2.68432584275057 0.06116724093105944
0.764296858143973 -2.5074147952914263 0.06048106777978664
0.8325072196205382 -2.2691950522411926 0.05724158366805629
0.8903868164880545 -1.9783403294999031 0.05177399809908515
0.9376656650176912 -1.6437239365917613 0.044530184604615525
0.9742613339082977 -1.2744804057819863 0.03593709672479292
1.0008128370257963 -0.8792385090954891 0.026544043023841467
1.0216274066535334 -0.4685617348015578 0.015780629554590295
1.0411148239006784 0.0 -9.009962800672664e-05
0.18223796496168668 -0.019828135838534017 -0.005835553782327813
0.19010341963840416 -0.46226894579289873 0.005822330847033177
0.1964444197236813 -0.8777792401772532 0.015160188523605629
0.21278559017654106 -1.2738287699073603 0.02307425606830628
0.23583944481412392 -1.6450126932760094 0.029697973828195695
0.26627834370549613 -1.9814853261038956 0.03514808614452182
0.30392803862759404 -2.2742250303060803 0.03918685642641132
0.34854960406412216 -2.5142604227063123 0.04162811555118415
0.3995342959548336 -2.6927990770305885 0.042343821690579174
0.45539863038892736 -2.802144052464478 0.04162738779726977
0.5136270767515035 -2.8384085263744674 0.04086535095884536
0.5718886736149472 -2.8026832743019825 0.041610493992012366
0.6278581285317254 -2.693891524431414 0.042324676648137674
0.6790373839911223 -2.5159321303992686 0.04163990697445685
0.7239737326013245 -2.2765085452357807 0.039289667063330626
0.7621048163830929 -1.9844065450340358 0.03543959579092324
0.7932572623346295 -1.64856471498975 0.03033665986258612
0.8173383970687949 -1.2779325607054044 0.0242715270296951
0.8351674624902519 -0.8822753056858481 0.01733085516247251
0.8436300879398128 -0.4668356185782656 0.008995962356788947
0.8526327685187562 -0.02092477021936827 -0.0023534612533287432
0.35428079143216695 -0.03442673993617771 -0.009536352552029255
0.35833654806122817 -0.4615772047975197 -0.0005160641392614666
0.3590442122443033 -0.8784131520270078 0.0061503953616060736
0.3653847944286905 -1.2758127237123462 0.011064698008758249
0.37627500983527057 -1.6477220920425186 0.014824821740926414
0.39092712548013503 -1.9849940531230443 0.017694726966045477
0.4093212759603549 -2.278492689027458 0.019692050339818173
0.4313660405344958 -2.519290344753517 0.020776025076662877
0.4568990229883404 -2.6984865065984684 0.020925936328767682
0.48503973313317583 -2.807963656211475 0.02019338117380801
0.5137028445381071 -2.8436112348654206 0.019367513127362818
0.5423997429286008 -2.80851231327091 0.020110620983935047
0.5706469375722567 -2.699599266910688 0.020772240743992497
0.596374587280782 -2.520996146643424 0.020579473370420837
0.618728318986702 -2.2808285908896737 0.019505933615876814
0.6375834010550966 -1.987992406975267 0.017612337617945752
0.6528979065998739 -1.651384648813981 0.014997732804812742
0.6647109673084205 -1.2800643471492263 0.011732903996691173
0.6722849256764586 -0.8831049362105009 0.007650544070451088
0.6740009355822305 -0.4659828176572087 0.0020131730749346436
0.6785459906698955 -0.03611600832417984 -0.0059930575998963734
0.5212668452032203 -0.04378258730616517 -0.012841560382872905
0.5223567460088376 -0.46169448577417793 -0.006680758612764905
0.5187811764358208 -0.8778863312848282 -0.0029537737610344514
0.5161144841845513 -1.276204716419824 -0.0012176139244633143
0.5146998900121583 -1.6485362944995279 -0.0004919523793616668
0.5137474991527564 -1.986085967121108 -0.00032803278261719123
0.5131026410562225 -2.279868639695403 -0.0005246232704214151
0.5128638420794718 -2.520997865935917 -0.0009732933070924775
0.5133989305628004 -2.7005157611737163 -0.0015733262822848343
0.5144825205722502 -2.8095160438316156 -0.0024429647074637076
0.5137704306327773 -2.843291319909387 -0.003492848073625283
0.5130922708771914 -2.8100745586582043 -0.0025920776266818465
0.514282172384298 -2.7016495095536404 -0.001862711833841955
0.51500926223917 -2.5227382555447586 -0.0013804194664471425
0.5150693453238078 -2.282256266539992 -0.0010030163943638404
0.514857877849584 -1.9891584637439905 -0.0007908223237418845
0.5145045572567315 -1.652300342523347 -0.0007879520849567442
0.5138846507738338 -1.2805912707575657 -0.0011020316107401332
0.512090255236075 -0.8826349519505141 -0.002095506506438591
0.5090531338872931 -0.46592461551858516 -0.004787364206208209
0.5104129604469989 -0.045910467718111664 -0.009854482225789387
0.686884868833311 -0.048790861910710914 -0.016238023865533774
0.6853556150668211 -0.46188172804770145 -0.012534688630630269
0.677816963491573 -0.876597018234444 -0.011908102674258538
0.6668165388376017 -1.2751132153098221 -0.013430614130449551
0.6531952010097484 -1.6474249831174996 -0.01578135103271044
0.6365806139916866 -1.9847852154439798 -0.018332399998596205
0.6169243388181844 -2.278369108512221 -0.020732948034635094
0.5943459129425768 -2.5193776558981726 -0.022731109354906676
0.5697124199851484 -2.6989821574006454 -0.02404919738178317
0.5440709572179844 -2.8070623825037195 -0.024626959547535018
0.5138398392488734 -2.8366627900752377 -0.025569000097068712
0.4836429504676619 -2.807631092750447 -0.0248435225339982
0.4581080698496265 -2.700137419270096 -0.02447672055575891
0.433664609612111 -2.5211529239910777 -0.02335305081734017
0.4113758678289007 -2.2808077022480706 -0.021510441518276035
0.39212550087919124 -1.9879277153746764 -0.019185453275223863
0.37604404063321345 -1.6512825651700551 -0.01656101140352017
0.36306039693883063 -1.279601330900669 -0.013886940369626401
0.35265324266156023 -0.8813559205125012 -0.011687046794354143
0.3454224121912584 -0.4660002849074367 -0.011293802845303463
0.34404053910595017 -0.05119736345380742 -0.01390383269998893
0.8536107132644026 -0.05066476587256062 -0.01989632738345676
0.8500161857028529 -0.46168826755866493 -0.018058249325941408
0.8386665942308108 -0.8746615609373987 -0.020509501603510755
0.8196210860506472 -1.272645064540816 -0.02524081249060099
0.7937491899853647 -1.6443708839267699 -0.03057463284537415
0.7612988930572406 -1.9810606768414596 -0.035722452093964616
0.7223779292565639 -2.274002382833222 -0.040205210022940654
0.6773087530510769 -2.514330172309316 -0.043603775919851956
0.6263962270926481 -2.6937760949240515 -0.04550709491825757
0.5736157913616864 -2.8012973035062037 -0.04485937526390642
0.513921235598553 -2.822523753001559 -0.04397059695989808
0.45426207789549566 -2.801876670572184 -0.04514506321154385
0.40159111493969807 -2.6949536318198644 -0.046076421434867676
0.35087109528383564 -2.516141004112138 -0.0444468397040818
0.3060887733052968 -2.2764915015817975 -0.0412916947333616
0.26755512576519697 -1.9842696704350185 -0.03698056198523177
0.23557707848913842 -1.648309012879127 -0.031859483314172224
0.21019265901093576 -1.2772065606457235 -0.026294318330859046
0.19150719345572972 -0.8794260301899682 -0.020941537555865104
0.18028476311967898 -0.46575171537190757 -0.01746491510262943
0.1767274403211917 -0.05320529967625491 -0.018193456772379237
1.0228165779550074 -0.051046915285839656 -0.02369085329273267
1.0187434463419973 -0.46103890149198234 -0.02326228866583383
1.0043244970698233 -0.8721170574363389 -0.028464313356451117
0.9769360875535116 -1.2687655629971282 -0.03612029762256726
0.9385077374571198 -1.6393138544175672 -0.044136901641366466
0.8898868233786212 -1.9748439635714972 -0.051575786327481915
0.8312415754913299 -2.2666177379932524 -0.057820920265252054
0.7629391591689104 -2.5059561292155927 -0.06229021796608231
0.6856193268728504 -2.683923096769996 -0.06443322757678942
0.599577664835166 -2.7932998864324383 -0.0621499171115381
0.5140267311014216 -2.8 -0.0528153687268652
0.4285141160226288 -2.7938907995218334 -0.06250688748354462
0.3425901221043501 -2.6851245088638374 -0.0651490267410965
0.26547421022748485 -2.5078043605453306 -0.0633622947736677
0.197468798213 -2.269158469787975 -0.05922856047666088
0.13921000655404442 -1.9781170219615825 -0.05325670737288073
0.09102422691690747 -1.6433191321948557 -0.04595102734229049
0.05295717776995327 -1.273372084342922 -0.037798156546757354
0.025673716664490538 -0.8768720452169732 -0.029567567207544464
0.011105386037289918 -0.4650674142282897 -0.023295826782219687
0.00692658135608503 -0.0536158366183621 -0.022545156138848214
0.0 0.0 0.0
0.011977883768818285 -0.4388625473072074 0.007397848897169167
0.03036806129697375 -0.8393123415284505 0.01412952456728614
0.05640054501842772 -1.2239641372339887 0.020385946983444113
0.09233365154580414 -1.58377094112091 0.02521422538470829
0.13853083083026804 -1.9107345010367596 0.028603418187612195
0.19482454208932276 -2.196601238911826 0.030321029918396258
0.2609463319532545 -2.4334436982543575 0.030208206271785717
0.3366344504187627 -2.6135056175549907 0.028339400894480393
0.4215790345298978 -2.7286364146588244 0.025511612474035578
0.5136352806295069 -2.7693841453848953 0.023875896362329663
0.6057022195389403 -2.7288445455286423 0.025528422282680215
0.6906803736482517 -2.613921237286997 0.02838515229610948
0.7664299832092156 -2.4340652990726266 0.03030968074032552
0.8326517369259154 -2.197425417252377 0.030524650341096842
0.8891045092598928 -1.911752104920693 0.02897946485002596
0.9355566942450801 -1.5849576660520435 0.025869197790149255
0.971912626736448 -1.225260744079169 0.021432512687994006
0.9986324495241616 -0.8406024694349772 0.015874492841706615
1.0183803847301347 -0.44009686603419396 0.009410797188144542
1.0335853396550847 0.0 0.008260484427211851
0.1770815508350285 -0.012759830487795795 0.0010903893918090511
0.1842516914090141 -0.43822388787445876 0.0033918070100198813
0.19300784903691126 -0.8421457544606277 0.008821266828918714
0.21049276765437522 -1.2275105178527075 0.01327359146252512
0.23441436138127816 -1.5886448883781434 0.016725493176775182
0.2651818984435811 -1.9168478500969317 0.01903338010323589
0.30267672928759815 -2.2039711849243417 0.020163147021899752
0.3467001896187655 -2.4420603501603213 0.020069274651821886
0.3969758504680324 -2.6233997065812553 0.01885737538027151
0.4531220520660396 -2.739838630667296 0.0169832672833939
0.5136817774184228 -2.7814014431182286 0.01578523321614731
0.5742520129079774 -2.740049032954811 0.016939921679862645
0.6304311067952612 -2.6238200213530622 0.01878013831129602
0.680766529262661 -2.442689458009801 0.019980112882886154
0.7248857489549538 -2.2048065249844355 0.020102117340508267
0.7625291748879308 -1.917882115567087 0.019067904604227748
0.7935301824793246 -1.5898574266325192 0.016955063252094955
0.8178227184537277 -1.228848445779956 0.013862757851471728
0.8359440064590389 -0.8435172120746179 0.009918929048917726
0.8458161422083738 -0.4396329629562339 0.005583828548327462
0.8536256463545387 -0.012979816949652476 0.006251665902781065
0.34713778446744475 -0.022466787690105502 -0.001963117557003483
0.3511129498847387 -0.4381380606194132 -0.00015314590633920457
0.3541652245647179 -0.8431970601001794 0.003413504150827846
0.36217513391767087 -1.2296690423923153 0.006314849858206301
0.374133733916788 -1.5914971518258194 0.008330170768679665
0.38946312711818687 -1.9204528376385266 0.009546699411773097
0.4081624875119742 -2.2083069848952457 0.01001501133339882
0.4300607977824687 -2.447094802735612 0.009778091258044356
0.4548536389681411 -2.6291424410322315 0.00889088233241768
0.4826089758226298 -2.746620815713765 0.007393399877197738
0.5137320280640204 -2.789442842857876 0.006071291918791966
0.5448652900135075 -2.746834525087687 0.007290710727697934
0.5726523288904061 -2.6295694824562235 0.008692614088251846
0.5975018170180986 -2.447734297323856 0.009502060250378745
0.6194883705590588 -2.2091568217492763 0.009697212550011226
0.6383199100856939 -1.9215068398641852 0.009252208344535691
0.6538481652414502 -1.5927371008015516 0.008169006678527147
0.6661163600521383 -1.2310454383214624 0.006455454205237582
0.6746403707957236 -0.8446456464405302 0.004104507397358662
0.6782298473000409 -0.43946313893661293 0.0016686936247827847
0.6824428056946641 -0.022672700610611725 0.0019352075073739857
0.513686937499714 -0.028987369613877843 -0.00607810671921695
0.5150343713802175 -0.43843790164207197 -0.004050225243163549
0.5135600391988985 -0.8431507092234639 -0.0019796397684080204
0.5127694531253558 -1.2303041226327283 -0.0006623363669981597
0.5126228014042469 -1.5924530552927183 -9.098981423005266e-05
0.5125302415726385 -1.921644232552194 -1.730696179717512e-05
0.5124319995292135 -2.209741069019061 -0.00027430148119328646
0.5122642526871822 -2.4486947394673177 -0.0007624020389796225
0.5116543039022192 -2.630885025579651 -0.0014591970429929696
0.5111572943857602 -2.7493738366584086 -0.002721615658666057
0.5137841414026301 -2.7945875221159975 -0.004516599579052923
0.5164208276371516 -2.74959183848477 -0.002883761165371021
0.515954042818388 -2.6313206926001573 -0.0017786731856062258
0.5153968488560566 -2.4493472157005183 -0.0012252548903735672
0.5153081977498173 -2.2106081971958584 -0.0008483214914752164
0.5153220193767527 -1.9227201296046394 -0.0006372540044151293
0.515387355118125 -1.5937199309138768 -0.0006382870929003995
0.5154765371377907 -1.231718898788297 -0.0009426444120724249
0.5150044960182514 -0.8446133882512072 -0.0016848033306420612
0.5137761631265981 -0.43963734703115515 -0.0026705765806296477
0.5152397398848069 -0.029203925731988427 -0.003058624614098744
0.6790924391825943 -0.03270073829568906 -0.010324853877230197
0.6780558177450459 -0.4387064514553825 -0.008105118418793794
0.6724219646966471 -0.8423322777618615 -0.007346438238935579
0.6633446382987096 -1.2295048693921997 -0.007609232420708288
0.6511538759108996 -1.5915130445044658 -0.008485840807892973
0.6356037062681363 -1.9204524523153828 -0.009565675072924017
0.6166781444439362 -2.2083130324377658 -0.010558311501669956
0.5945251355718245 -2.4469601636751563 -0.011298299561666864
0.5687719284899297 -2.6286569140387277 -0.011749522320854118
0.5396949596081652 -2.747937696958128 -0.01244518969407234
0.513837344245634 -2.7976823631082235 -0.014890733259237962
0.4879892212030682 -2.748160977414738 -0.012667906596787943
0.4589410488490746 -2.6291030934193422 -0.012192613383314756
0.43323675254650945 -2.447628164063639 -0.011952063581005451
0.41115368527026 -2.2092001360500793 -0.011394795089444881
0.39231969561236485 -1.9215516883451662 -0.010520351072653885
0.3768855206808802 -1.592806679008966 -0.009430934090064047
0.3648406684120061 -1.2309457554619176 -0.00832148015521201
0.35591724934020824 -0.8437816619874631 -0.007477522170613638
0.35037295730227613 -0.4398084393745997 -0.007196996377878709
0.34939456294747645 -0.03293614932772182 -0.00804418934437446
0.8450183665464452 -0.03429938864746286 -0.01422150872886469
0.841967936348821 -0.43865133803940215 -0.012062445301733381
0.8322950073879521 -0.840833171133032 -0.012644490113407326
0.8151425600726696 -1.227331521786578 -0.014480659934441378
0.7909345917837886 -1.5886420138237052 -0.01679845629748993
0.7598969471244887 -1.9168470038809808 -0.019003914156248098
0.7221539076069393 -2.2039544207683366 -0.020693446234173775
0.6778375037890315 -2.4419383246146125 -0.021577803620221575
0.6276521291074214 -2.622522035221168 -0.021629071279729958
0.5696884541335007 -2.7414336179072163 -0.020955220544542977
0.5138908117950379 -2.799518490552438 -0.023551090934718653
0.45810241854120537 -2.741663227386613 -0.021240580460229547
0.40016646864677546 -2.62298074561775 -0.02220035622222055
0.3500269402356003 -2.4426246292853184 -0.022430515071448328
0.305772871039029 -2.2048644654237997 -0.021805587905668392
0.2681042318315468 -1.917971715474318 -0.0203143482796835
0.2371437645109211 -1.58996053546268 -0.018173309230885306
0.21299734826206956 -1.2287878547128446 -0.01567116106912403
0.19586389051553196 -0.8422649078373317 -0.013262446424293329
0.18616721465053804 -0.4396944477114427 -0.011652209169533054
0.18312285045856994 -0.03454261060032203 -0.012581651837792016
1.0123882577728787 -0.0348100158503012 -0.017212822405486813
1.0082898893939696 -0.43818187084928517 -0.01576583223404023
0.9948289749513345 -0.8386230692285666 -0.017902404041492414
0.9693643356409152 -1.2237146081012134 -0.02137905466655086
0.9330665058656317 -1.5837565466850692 -0.025168437697475874
0.8865553604005183 -1.9107083088977443 -0.028490181929370622
0.8299872470552647 -2.196588249832268 -0.030808969937089873
0.7635510738526933 -2.4332417104699524 -0.03175654455799736
0.6880146951054794 -2.61317042955926 -0.031088040818377446
0.6059300319581866 -2.7282912685065988 -0.028647630768599545
0.5139424722756963 -2.8 -0.027550968600675137
0.4219640244125597 -2.7285283428154887 -0.02899849253264835
0.3399064524854188 -2.6136438914005606 -0.031793922784222425
0.2644139987696462 -2.433949460912375 -0.03281969944590481
0.19803529863113545 -2.197524936271915 -0.03221618113911082
0.1415304105080443 -1.9118617096370705 -0.03018858054665497
0.09506999330569922 -1.5850994722473475 -0.027026184167511128
0.058771496257549696 -1.2251794230079056 -0.023130768276735734
0.03320787521434505 -0.8400348219543069 -0.019111782458605696
0.019586139722001975 -0.439189881667921 -0.01590243994980091
0.01541889819023216 -0.03504267439505603 -0.01608343336792582
0.0 0.0 0.0
0.016628512539652678 -0.42768732325948333 0.0031964154707738537
0.034973769483723424 -0.8210471601983795 0.0059982434166368824
0.0604009610290313 -1.2000051313366864 0.008654637664948294
0.09529840683782648 -1.5554615097469568 0.010537094027289386
0.13981142488017584 -1.8797577371202236 0.01149180015055343
0.19381073723508443 -2.165193544143019 0.01144330686937917
0.2573771865448036 -2.4043714989809035 0.010408318853249297
0.33132839436730005 -2.5896738493867812 0.008605211788436682
0.4172394396479944 -2.711465657757706 0.006664124643583249
0.513661047917597 -2.7557665525619317 0.0057343621912442555
0.6100702228282472 -2.7114163075336264 0.006665913801397241
0.6959420756830115 -2.5895599776877156 0.008616223153509541
0.7698213357650122 -2.4041634164620254 0.010444706150807349
0.8332719079407925 -2.164849133312274 0.01153190105484232
0.8870924447603332 -1.8792284637342616 0.011670729921561667
0.931334963928079 -1.5547050734580603 0.01085524066174865
0.9658192812229487 -1.1990093707634837 0.009163309682866815
0.990630959821388 -0.8198514817705969 0.006824219392659815
1.0077257229205465 -0.42626043723451124 0.004593932590435368
1.0207625935488234 0.0 0.004687239225478766
0.17783997782139685 -0.011034304742960232 0.00011556997934027713
0.18518182132028738 -0.4276199810572173 0.0016403507212681833
0.19488483922931676 -0.8239952113707153 0.003784909298936559
0.21227442919591727 -1.2037479436594505 0.0057188622834258955
0.2357299307077556 -1.560549245802723 0.007113113430168123
0.26559615654735025 -1.886148805255296 0.007822768496909103
0.3017826763074104 -2.1729551782470162 0.007837104381648356
0.3443360779992525 -2.413604094928073 0.0072062529804671
0.3936509373206482 -2.600629140943886 0.00609208081936138
0.4504514721771473 -2.724433235413686 0.004870372692471951
0.5136539840430131 -2.77004165371494 0.00425414477302928
0.5768410983082417 -2.724379636223363 0.004834618100514018
0.633593702691845 -2.6005056643050772 0.006025910441372075
0.6828227717807132 -2.4133786260490515 0.007121878629583906
0.7252430865081468 -2.172581425839037 0.0077561827439613104
0.7612347175069789 -1.8855714649575495 0.007779473011687311
0.7908212223069322 -1.5597158687932375 0.007154844651555015
0.8138817304500745 -1.202631854309783 0.00591754583048136
0.8306692221711165 -0.8226009903253276 0.004247480802017547