# vtk DataFile Version 3.0
Some data
ASCII
DATASET UNSTRUCTURED_GRID
POINTS 1029 float
0.0 0.0 0.0
0.8 0.0 0.0
1.6 0.0 0.0
2.4000000000000004 0.0 0.0
3.2 0.0 0.0
4.0 0.0 0.0
4.800000000000001 0.0 0.0
5.6000000000000005 0.0 0.0
6.4 0.0 0.0
7.2 0.0 0.0
8.0 0.0 0.0
8.8 0.0 0.0
9.600000000000001 0.0 0.0
10.4 0.0 0.0
11.200000000000001 0.0 0.0
12.0 0.0 0.0
12.8 0.0 0.0
13.600000000000001 0.0 0.0
14.4 0.0 0.0
15.200000000000001 0.0 0.0
16.0 0.0 0.0
0.0 0.3333333333333333 0.0
0.8 0.3333333333333333 0.0
1.6 0.3333333333333333 0.0
2.4000000000000004 0.3333333333333333 0.0
3.2 0.3333333333333333 0.0
4.0 0.3333333333333333 0.0
4.800000000000001 0.3333333333333333 0.0
5.6000000000000005 0.3333333333333333 0.0
6.4 0.3333333333333333 0.0
7.2 0.3333333333333333 0.0
8.0 0.3333333333333333 0.0
8.8 0.3333333333333333 0.0
9.600000000000001 0.3333333333333333 0.0
10.4 0.3333333333333333 0.0
11.200000000000001 0.3333333333333333 0.0
12.0 0.3333333333333333 0.0
12.8 0.3333333333333333 0.0
13.600000000000001 0.3333333333333333 0.0
14.4 0.3333333333333333 0.0
15.200000000000001 0.3333333333333333 0.0
16.0 0.3333333333333333 0.0
0.0 0.6666666666666666 0.0
0.8 0.6666666666666666 0.0
1.6 0.6666666666666666 0.0
2.4000000000000004 0.6666666666666666 0.0
3.2 0.6666666666666666 0.0
4.0 0.6666666666666666 0.0
4.800000000000001 0.6666666666666666 0.0
5.6000000000000005 0.6666666666666666 0.0
6.4 0.6666666666666666 0.0
7.2 0.6666666666666666 0.0
8.0 0.6666666666666666 0.0
8.8 0.6666666666666666 0.0
9.600000000000001 0.6666666666666666 0.0
10.4 0.6666666666666666 0.0
11.200000000000001 0.6666666666666666 0.0
12.0 0.6666666666666666 0.0
12.8 0.6666666666666666 0.0
13.600000000000001 0.6666666666666666 0.0
14.4 0.6666666666666666 0.0
15.200000000000001 0.6666666666666666 0.0
16.0 0.6666666666666666 0.0
0.0 1.0 0.0
0.8 1.0 0.0
1.6 1.0 0.0
2.4000000000000004 1.0 0.0
3.2 1.0 0.0
4.0 1.0 0.0
4.800000000000001 1.0 0.0
5.6000000000000005 1.0 0.0
6.4 1.0 0.0
7.2 1.0 0.0
8.0 1.0 0.0
8.8 1.0 0.0
9.600000000000001 1.0 0.0
10.4 1.0 0.0
11.200000000000001 1.0 0.0
12.0 1.0 0.0
12.8 1.0 0.0
13.600000000000001 1.0 0.0
14.4 1.0 0.0
15.200000000000001 1.0 0.0
16.0 1.0 0.0
0.0 1.3333333333333333 0.0
0.8 1.3333333333333333 0.0
1.6 1.3333333333333333 0.0
2.4000000000000004 1.3333333333333333 0.0
3.2 1.3333333333333333 0.0
4.0 1.3333333333333333 0.0
4.800000000000001 1.3333333333333333 0.0
5.6000000000000005 1.3333333333333333 0.0
6.4 1.3333333333333333 0.0
7.2 1.3333333333333333 0.0
8.0 1.3333333333333333 0.0
8.8 1.3333333333333333 0.0
9.600000000000001 1.3333333333333333 0.0
10.4 1.3333333333333333 0.0
11.200000000000001 1.3333333333333333 0.0
12.0 1.3333333333333333 0.0
12.8 1.3333333333333333 0.0
13.600000000000001 1.3333333333333333 0.0
14.4 1.3333333333333333 0.0
15.200000000000001 1.3333333333333333 0.0
16.0 1.3333333333333333 0.0
0.0 1.6666666666666665 0.0
0.8 1.6666666666666665 0.0
1.6 1.6666666666666665 0.0
2.4000000000000004 1.6666666666666665 0.0
3.2 1.6666666666666665 0.0
4.0 1.6666666666666665 0.0
4.800000000000001 1.6666666666666665 0.0
5.6000000000000005 1.6666666666666665 0.0
6.4 1.6666666666666665 0.0
7.2 1.6666666666666665 0.0
8.0 1.6666666666666665 0.0
8.8 1.6666666666666665 0.0
9.600000000000001 1.6666666666666665 0.0
10.4 1.6666666666666665 0.0
11.200000000000001 1.6666666666666665 0.0
12.0 1.6666666666666665 0.0
12.8 1.6666666666666665 0.0
13.600000000000001 1.6666666666666665 0.0
14.4 1.6666666666666665 0.0
15.200000000000001 1.6666666666666665 0.0
16.0 1.6666666666666665 0.0
0.0 2.0 0.0
0.8 2.0 0.0
1.6 2.0 0.0
2.4000000000000004 2.0 0.0
3.2 2.0 0.0
4.0 2.0 0.0
4.800000000000001 2.0 0.0
5.6000000000000005 2.0 0.0
6.4 2.0 0.0
7.2 2.0 0.0
8.0 2.0 0.0
8.8 2.0 0.0
9.600000000000001 2.0 0.0
10.4 2.0 0.0
11.200000000000001 2.0 0.0
12.0 2.0 0.0
12.8 2.0 0.0
13.600000000000001 2.0 0.0
14.4 2.0 0.0
15.200000000000001 2.0 0.0
16.0 2.0 0.0
0.0 0.0 1.6666666666666667
0.8 0.0 1.6666666666666667
1.6 0.0 1.6666666666666667
2.4000000000000004 0.0 1.6666666666666667
3.2 0.0 1.6666666666666667
4.0 0.0 1.6666666666666667
4.800000000000001 0.0 1.6666666666666667
5.6000000000000005 0.0 1.6666666666666667
6.4 0.0 1.6666666666666667
7.2 0.0 1.6666666666666667
8.0 0.0 1.6666666666666667
8.8 0.0 1.6666666666666667
9.600000000000001 0.0 1.6666666666666667
10.4 0.0 1.6666666666666667
11.200000000000001 0.0 1.6666666666666667
12.0 0.0 1.6666666666666667
12.8 0.0 1.6666666666666667
13.600000000000001 0.0 1.6666666666666667
14.4 0.0 1.6666666666666667
15.200000000000001 0.0 1.6666666666666667
16.0 0.0 1.6666666666666667
0.0 0.3333333333333333 1.6666666666666667
0.8 0.3333333333333333 1.6666666666666667
1.6 0.3333333333333333 1.6666666666666667
2.4000000000000004 0.3333333333333333 1.6666666666666667
3.2 0.3333333333333333 1.6666666666666667
4.0 0.3333333333333333 1.6666666666666667
4.800000000000001 0.3333333333333333 1.6666666666666667
5.6000000000000005 0.3333333333333333 1.6666666666666667
6.4 0.3333333333333333 1.6666666666666667
7.2 0.3333333333333333 1.6666666666666667
8.0 0.3333333333333333 1.6666666666666667
8.8 0.3333333333333333 1.6666666666666667
9.600000000000001 0.3333333333333333 1.6666666666666667
10.4 0.3333333333333333 1.6666666666666667
11.200000000000001 0.3333333333333333 1.6666666666666667
12.0 0.3333333333333333 1.6666666666666667
12.8 0.3333333333333333 1.6666666666666667
13.600000000000001 0.3333333333333333 1.6666666666666667
14.4 0.3333333333333333 1.6666666666666667
15.200000000000001 0.3333333333333333 1.6666666666666667
16.0 0.3333333333333333 1.6666666666666667
0.0 0.6666666666666666 1.6666666666666667
0.8 0.6666666666666666 1.6666666666666667
1.6 0.6666666666666666 1.6666666666666667
2.4000000000000004 0.6666666666666666 1.6666666666666667
3.2 0.6666666666666666 1.6666666666666667
4.0 0.6666666666666666 1.6666666666666667
4.800000000000001 0.6666666666666666 1.6666666666666667
5.6000000000000005 0.6666666666666666 1.6666666666666667
6.4 0.6666666666666666 1.6666666666666667
7.2 0.6666666666666666 1.6666666666666667
8.0 0.6666666666666666 1.6666666666666667
8.8 0.6666666666666666 1.6666666666666667
9.600000000000001 0.6666666666666666 1.6666666666666667
10.4 0.6666666666666666 1.6666666666666667
11.200000000000001 0.6666666666666666 1.6666666666666667
12.0 0.6666666666666666 1.6666666666666667
12.8 0.6666666666666666 1.6666666666666667
13.600000000000001 0.6666666666666666 1.6666666666666667
14.4 0.6666666666666666 1.6666666666666667
15.200000000000001 0.6666666666666666 1.6666666666666667
16.0 0.6666666666666666 1.6666666666666667
0.0 1.0 1.6666666666666667
0.8 1.0 1.6666666666666667
1.6 1.0 1.6666666666666667
2.4000000000000004 1.0 1.6666666666666667
3.2 1.0 1.6666666666666667
4.0 1.0 1.6666666666666667
4.800000000000001 1.0 1.6666666666666667
5.6000000000000005 1.0 1.6666666666666667
6.4 1.0 1.6666666666666667
7.2 1.0 1.6666666666666667
8.0 1.0 1.6666666666666667
8.8 1.0 1.6666666666666667
9.600000000000001 1.0 1.6666666666666667
10.4 1.0 1.6666666666666667
11.200000000000001 1.0 1.6666666666666667
12.0 1.0 1.6666666666666667
12.8 1.0 1.6666666666666667
13.600000000000001 1.0 1.6666666666666667
14.4 1.0 1.6666666666666667
15.200000000000001 1.0 1.6666666666666667
16.0 1.0 1.6666666666666667
0.0 1.3333333333333333 1.6666666666666667
0.8 1.3333333333333333 1.6666666666666667
1.6 1.3333333333333333 1.6666666666666667
2.4000000000000004 1.3333333333333333 1.6666666666666667
3.2 1.3333333333333333 1.6666666666666667
4.0 1.3333333333333333 1.6666666666666667
4.800000000000001 1.3333333333333333 1.6666666666666667
5.6000000000000005 1.3333333333333333 1.6666666666666667
6.4 1.3333333333333333 1.6666666666666667
7.2 1.3333333333333333 1.6666666666666667
8.0 1.3333333333333333 1.6666666666666667
8.8 1.3333333333333333 1.6666666666666667
9.600000000000001 1.3333333333333333 1.6666666666666667
10.4 1.3333333333333333 1.6666666666666667
11.200000000000001 1.3333333333333333 1.6666666666666667
12.0 1.3333333333333333 1.6666666666666667
12.8 1.3333333333333333 1.6666666666666667
13.600000000000001 1.3333333333333333 1.6666666666666667
14.4 1.3333333333333333 1.6666666666666667
15.200000000000001 1.3333333333333333 1.6666666666666667
16.0 1.3333333333333333 1.6666666666666667
0.0 1.6666666666666665 1.6666666666666667
0.8 1.6666666666666665 1.6666666666666667
1.6 1.6666666666666665 1.6666666666666667
2.4000000000000004 1.6666666666666665 1.6666666666666667
3.2 1.6666666666666665 1.6666666666666667
4.0 1.6666666666666665 1.6666666666666667
4.800000000000001 1.6666666666666665 1.6666666666666667
5.6000000000000005 1.6666666666666665 1.6666666666666667
6.4 1.6666666666666665 1.6666666666666667
7.2 1.6666666666666665 1.6666666666666667
8.0 1.6666666666666665 1.6666666666666667
8.8 1.6666666666666665 1.6666666666666667
9.600000000000001 1.6666666666666665 1.6666666666666667
10.4 1.6666666666666665 1.6666666666666667
11.200000000000001 1.6666666666666665 1.6666666666666667
12.0 1.6666666666666665 1.6666666666666667
12.8 1.6666666666666665 1.6666666666666667
13.600000000000001 1.6666666666666665 1.6666666666666667
14.4 1.6666666666666665 1.6666666666666667
15.200000000000001 1.6666666666666665 1.6666666666666667
16.0 1.6666666666666665 1.6666666666666667
0.0 2.0 1.6666666666666667
0.8 2.0 1.6666666666666667
1.6 2.0 1.6666666666666667
2.4000000000000004 2.0 1.6666666666666667
3.2 2.0 1.6666666666666667
4.0 2.0 1.6666666666666667
4.800000000000001 2.0 1.6666666666666667
5.6000000000000005 2.0 1.6666666666666667
6.4 2.0 1.6666666666666667
7.2 2.0 1.6666666666666667
8.0 2.0 1.6666666666666667
8.8 2.0 1.6666666666666667
9.600000000000001 2.0 1.6666666666666667
10.4 2.0 1.6666666666666667
11.200000000000001 2.0 1.6666666666666667
12.0 2.0 1.6666666666666667
12.8 2.0 1.6666666666666667
13.600000000000001 2.0 1.6666666666666667
14.4 2.0 1.6666666666666667
15.200000000000001 2.0 1.6666666666666667
16.0 2.0 1.6666666666666667
0.0 0.0 3.3333333333333335
0.8 0.0 3.3333333333333335
1.6 0.0 3.3333333333333335
2.4000000000000004 0.0 3.3333333333333335
[...]
POINT_DATA 1029
VECTORS Disp float
0.0 0.0 0.0
0.03292726542713263 -1.1939917361015957 0.028579618259497456
0.07929108775497382 -2.249957870359555 0.06153790485115405
0.14341577131740024 -3.2671148333833337 0.08785678689951539
0.2346691862514902 -4.217885732925069 0.11170545644528178
0.3543311869090256 -5.079854288453172 0.131423425337215
0.5019078542540015 -5.829335232952948 0.14619049618308338
0.676506462284205 -6.44342393971629 0.1549576160295407
0.8757409328101029 -6.899792102586384 0.15699048486978076
1.0936838301657932 -7.179376322465781 0.15349040921985505
1.3205096185779475 -7.272537603611786 0.1503226882931111
1.5474160202713496 -7.1807404467734886 0.15361662383845395
1.7656164846783962 -6.902552167074116 0.1572871909649578
1.9653347780841308 -6.447638045036551 0.15552274571877334
2.1407328504525216 -5.835072991478981 0.14719264371711738
2.2895660995405542 -5.087160847287244 0.13313313796830856
2.411140281474072 -4.226718694094754 0.11450618898240568
2.50524343005004 -3.2772353291550953 0.09240967729130274
2.573518723780839 -2.260899023389432 0.06825611063156657
2.627041902823682 -1.2048730323475147 0.040578761710495355
2.677152404316424 0.0 -0.0002316847591887777
0.46861190990144985 -0.050986635013402025 -0.01500570972601153
0.48883736478443185 -1.1886915748961724 0.014971707892304873
0.5051427935751214 -2.2571466175989228 0.03898334191772872
0.5471629461681886 -3.2755596940478378 0.0593338013183501
0.6064442866648251 -4.230032639853081 0.07636621841517151
0.6847157409569322 -5.095247981410626 0.0903807929428386
0.7815292421851965 -5.848007220787772 0.10076620223908798
0.8962704104505494 -6.465241086959771 0.10704372570274245
1.0273739038837966 -6.9243404837935145 0.10888411291825191
1.1710250495714096 -7.205513277766319 0.10704185433539654
1.3207553402179175 -7.298764782106444 0.10508233103652558
1.470570875009538 -7.206899848206014 0.10699841312171277
1.6144923305098078 -6.927149634253428 0.10883488280881734
1.7460961302625946 -6.469539763885284 0.10707404650500027
1.8616467409745898 -5.8538791163222115 0.10103057244775515
1.959698099270647 -5.102759687232176 0.09113038917577995
2.039804388860413 -4.239166409975298 0.07800855393138603
2.1017273067483453 -3.2861122989581735 0.06241249807526752
2.1475734749750206 -2.2687079289075025 0.04456505613086099
2.1693345118453413 -1.2004344477733255 0.023132474630402303
2.1924842619055327 -0.05380655199275641 -0.006051757510029518
0.9110077493969898 -0.0885259026930749 -0.024522049419527736
0.9214368378717143 -1.1869128123366326 -0.0013270220724505217
0.9232565457710427 -2.2587766766411432 0.01581530235830294
0.9395608999594652 -3.2806612895463756 0.028452080593791545
0.9675643110049514 -4.236999665252673 0.038120970190746555
1.0052411798060272 -5.104270422317021 0.045500726483861484
1.0525404238980127 -5.858981200356995 0.05063670087351005
1.109226961374359 -6.478175172223969 0.05342406448249193
1.1748832019699573 -6.938965302682336 0.05380955055927427
1.247245028056669 -7.220477973115762 0.05192583730359618
1.3209501716692533 -7.312143175368742 0.04980217661269166
1.394742196101856 -7.221888805554694 0.05171302538662747
1.4673778394712598 -6.941826686343006 0.05341433334095661
1.533534653007486 -6.482561519941695 0.052918645808845796
1.5910156773941744 -5.864987805146526 0.050158115011365356
1.6395001741415192 -5.111980475081086 0.04528886815945888
1.6788803312567064 -4.246417668380478 0.038565598639882126
1.7092567730787103 -3.291594035528015 0.03017032456175795
1.7287326660251268 -2.270841264542355 0.019672827608467343
1.733145262925694 -1.198241531119176 0.005176730762741395
1.744832547436848 -0.09286973569091365 -0.015410719544081831
1.3404004590940144 -0.1125837959301955 -0.033021155270263634
1.3432030611655976 -1.1872143919909053 -0.01717909357574629
1.3340087394064115 -2.257421994732688 -0.007595418242773071
1.3271515307602713 -3.2816692707941884 -0.003131007234498372
1.3235140028884067 -4.239093328713547 -0.001265020404297535
1.3210649978213582 -5.107078201169145 -0.0008435128698692054
1.319406791287391 -5.8625193592173845 -0.0013490312671499236
1.3187927367757284 -6.482565940978731 -0.0025027542186407802
1.3201686785900164 -6.9441833858758555 -0.00404569615490397
1.3229550529000456 -7.224469826996124 -0.006281909248271981
1.3211239644841775 -7.311320536910266 -0.008981609332725508
1.3193801251125925 -7.225906007979154 -0.006665342469283742
1.3224398718451411 -6.947098738853453 -0.004789830430671215
1.324309531471968 -6.487041228545127 -0.003549650057464467
1.3244640308324842 -5.868658971104524 -0.002579185015058441
1.3239202573273317 -5.114978906772052 -0.0020335431192563193
1.3230117186599926 -4.248772309347404 -0.002026162505323036
1.3214176734182606 -3.2929489819494657 -0.002833795571708316
1.316803513464013 -2.2696327335880966 -0.005388445303589669
1.308993772852857 -1.1980918684770052 -0.01231036510309195
1.3124904697206794 -0.11805548841820968 -0.025340097153545363
1.7662753769999944 -0.1254622163418892 -0.041754918511387656
1.7623430101718731 -1.1876958721228181 -0.03223205647882829
1.7429579061212275 -2.2541066183174205 -0.030620835448207262
1.7146710998681427 -3.278862553654187 -0.0345358649070419
1.679644802596517 -4.236235670874046 -0.040580616941494556
1.6369215788357572 -5.103733411142225 -0.04714045713954864
1.586376871246719 -5.858663421889197 -0.05331329494659101
1.528318061852285 -6.478399686595966 -0.058451424055934245
1.4649747942474909 -6.940239833316573 -0.06184079326794136
1.3990396042748265 -7.218160412152949 -0.06332646740848848
1.3213024437827559 -7.2942757459081 -0.0657488573930271
1.2436533012024469 -7.219622809930518 -0.06388334365956393
1.1779921796132056 -6.943210506695786 -0.06294013857280017
1.1151375675738873 -6.482964661692843 -0.0600507021026921
1.0578236601313136 -5.864934091496726 -0.055312563905196295
1.0083227165463138 -5.111814125250962 -0.049334022708875616
0.9669703901994772 -4.246155167581808 -0.04258545789599549
0.9335838778424561 -3.290403422317433 -0.03570927523748648
0.9068226239865743 -2.2663437956046306 -0.030052406043997396
0.8882290599200647 -1.1982864469054748 -0.029041207317943424
0.8846756719864031 -0.13165036316716858 -0.035752712658655206
2.194998976965691 -0.13028082652950412 -0.05116198470032774
2.18575590609313 -1.1871984022938686 -0.04643549826676856
2.156571242307863 -2.2491297281250207 -0.05273871840914539
2.1075970784160076 -3.272515880248187 -0.06490494640458132
2.0410693456766937 -4.22838227295501 -0.07862048445978899
1.9576257250043343 -5.094156026164288 -0.09185773395622707
1.8575432466596913 -5.8474346987146 -0.10338482577369713
1.7416510792741458 -6.465420443081788 -0.11212399522298673
1.6107331553810467 -6.92685281551963 -0.11701824407607975
1.475012034930054 -7.2033359233021645 -0.1153526792506302
1.321511748681992 -7.257918222004207 -0.11306724932601582
1.1681024860169753 -7.204825724329281 -0.11608730540185272
1.0326628669877895 -6.929880767538007 -0.11848222654770331
0.9022399593012446 -6.470076867718447 -0.11429187352581417
0.7870854170706572 -5.853835289783471 -0.10617864360121977
0.6879988948246099 -5.102407723977564 -0.09509287367756103
0.6057696304003775 -4.238508890262282 -0.08192438566632688
0.540495408884914 -3.2842454416618594 -0.06761396142357805
0.49244706888574546 -2.26138122048953 -0.05384966800221923
0.4635893908787203 -1.1976472680998287 -0.044909781693956485
0.4544419893968827 -0.13681362773918246 -0.04678317455911198
2.630099771884427 -0.13126349644936655 -0.06091933703846207
2.619626004879542 -1.185528603836679 -0.05981731371220169
2.582548706751077 -2.2425867191222966 -0.07319394863098744
2.5121213679948204 -3.26254001913582 -0.09288076531535487
2.4133056106040804 -4.2153784827884735 -0.113494889935197
2.2882804029736232 -5.078170192041483 -0.132623450556716
2.1374783369776944 -5.82844561198325 -0.14868236639680094
1.9618435521485789 -6.443887189412192 -0.16017484619907368
1.7630211262443927 -6.901516534552056 -0.16568544234094834
1.541771138147478 -7.182771136541098 -0.15981407257315158
1.321783022832301 -7.200000000000002 -0.13581094815535122
1.1018934412012358 -7.184290627342739 -0.16073199638702462
0.8809460282684493 -6.904605879936781 -0.1675260687637488
0.6826479691564341 -6.44863978426093 -0.16293161513339327
0.5077769096905163 -5.834978922313646 -0.15230201265549986
0.3579685882816317 -5.086586627903044 -0.136945818960201
0.23406229778599072 -4.225677768502697 -0.11815978459585738
0.1361755999794065 -3.274385359740353 -0.09719525969310153
0.0660181285652712 -2.254813830558965 -0.07603088710657933
0.028556706952424748 -1.195887636587662 -0.059903554584359524
0.017811209200741588 -0.13786929416174568 -0.05797325864433939
0.0 0.0 0.0
0.03080027254837751 -1.128503693075858 0.019023040021244254
0.07808930047793329 -2.1582317353591907 0.036333063172928025
0.1450299729045533 -3.147336352887804 0.052421006528716896
0.23742938968926872 -4.072553848597048 0.06483657956051139
0.35622213642077266 -4.913317288380678 0.07355164676795047
0.5009773939440838 -5.648403185773661 0.0779683626470935
0.6710048535941929 -6.2574266526544395 0.07767824469862074
0.8656314439340409 -6.720443016570329 0.07287274515692496
1.0840603745054271 -7.016493637694358 0.0656012892185594
1.3207764359042624 -7.121273516704513 0.06139516207409388
1.557519993099904 -7.017028831360064 0.06564451444064404
1.776035246523839 -6.721511753024637 0.07299039161795708
1.970819956823515 -6.259025054759339 0.07793917904586467
2.1411044663808743 -5.6505225015074325 0.0784919580192034
2.2862687380969087 -4.9159339840830105 0.07451862389919903
2.405717213773203 -4.075605426992243 0.06652079431657298
2.4992038973225625 -3.150670484776099 0.05511217548233982
2.5679120130625077 -2.1615492071193643 0.040820124448906585
2.6186924178779374 -1.1316776555170083 0.024199192768194412
2.6577908733993127 0.0 0.021241245668568106
0.45535255929011087 -0.03281099268292904 0.002803858436074739
0.47379006362322373 -1.126861425963078 0.008721789454287025
0.4963058975235328 -2.165517654327635 0.022683257559980248
0.5412671168255856 -3.1564556173359417 0.034132092332063046
0.6027797864090654 -4.0850868558299505 0.043008411025812446
0.6818963102835771 -4.929037328821133 0.04894297740810458
0.7783115895967827 -5.667354475520151 0.051848092341769125
0.8915147733055 -6.279583757555482 0.051606706247236046
1.0207950440607119 -6.745884959780694 0.04849039383461509
1.1651709910269636 -7.045299336001885 0.04367125872827782
1.3208959990758609 -7.152175139447315 0.040590599698134604
1.4766480331917977 -7.045840370455933 0.04355979860476506
1.6211085603305344 -6.746965769194575 0.048291784228376995
1.7505425038181706 -6.281201463454955 0.05137743312667646
1.863991925884136 -5.669502492818433 0.05169115887476433
1.9607893068547173 -4.931696868602344 0.04903175469566022
2.0405061835183713 -4.088204811342038 0.04359873407579687
2.1029727045954907 -3.1598960034352994 0.03564709161694293
2.149570302323501 -2.1690442596213013 0.025505817553125323
2.174955794250396 -1.1304847618879585 0.01435841626578337
2.1950373763405535 -0.03337667215630945 0.01607571232001821
0.8926400172020841 -0.05777173977460662 -0.005048016575162035
0.9028618711322718 -1.1266407273072347 -0.0003938037592104883
0.9107105774522105 -2.1682210116864873 0.008777582102026983
0.9313074872169457 -3.162006109009199 0.01623818534952096
0.9620581729289602 -4.092421247552549 0.02142043911926451
1.0014766125897052 -4.938307296785248 0.024548655630025448
1.0495606821737486 -5.678503675445345 0.025752886285581825
1.105870622869306 -6.292529492749074 0.025143663234615154
1.169623643060998 -6.760651991226034 0.022862268854369722
1.2409945092582249 -7.062739240407056 0.019011599683727676
1.3210252150217376 -7.172853024492102 0.015611893504870057
1.4010821743203714 -7.063288778797591 0.0187475418705655
1.4725345600038495 -6.761750097745561 0.02235243622620083
1.5364332437607888 -6.294173907405361 0.024433869214450725
1.5929700957232897 -5.680688970213775 0.02493568941341842
1.641394054506098 -4.941017588223451 0.02379139288496104
1.6813238534780806 -4.095609687776713 0.021006017172270467
1.712870640134173 -3.1655454128277403 0.016599739383720676
1.7347895249034204 -2.1719459479907757 0.010554447591934175
1.7440196073430918 -1.1300480715517967 0.004290926462354916
1.7548529289292945 -0.05830123014167529 0.004976247874656002
1.3209092678565273 -0.07453895043574776 -0.01562941727799812
1.3243740978349612 -1.127411747079788 -0.01041486491104875
1.32058295794013 -2.168101823717788 -0.005090502261725068
1.3185500223224542 -3.163639172484551 -0.0017031506581579202
1.3181729178967307 -4.09487928503887 -0.00023397380823508756
1.3179349069011652 -4.941370883706125 -4.450361632582955e-05
1.3176822845037812 -5.682191320335184 -0.000705346666266941
1.3172509354814168 -6.296643615773399 -0.001960462386351572
1.3156824957486395 -6.765132922919381 -0.0037522209681621526
1.314404471277737 -7.069818437121852 -0.006998440265683154
1.3211592207496496 -7.18608219972715 -0.01161411320391571
1.3279392710669575 -7.070379013247268 -0.0074153858545171186
1.326738967247297 -6.766253209544283 -0.004573731049489205
1.3253061827727455 -6.298321411802497 -0.0031506554332606175
1.32507822278526 -5.684421078504975 -0.002181398121898625
1.3251137641116686 -4.944137476127482 -0.0016386531552650056
1.3252817703037776 -4.098136965208436 -0.0016413096686032662
1.3255110954971927 -3.1672771683138667 -0.002423942775127849
1.3242972754755111 -2.1718629983610995 -0.00433235142296551
1.3211387051826864 -1.1304960352234732 -0.006867196923021922
1.3249021882752343 -0.07509580902524539 -0.0078650347234524
1.7462377007553962 -0.08408761276041027 -0.026549624255746224
1.7435721027731335 -1.12810230374259 -0.02084173307695803
1.7290850520772378 -2.1659972856736585 -0.01889084118594452
1.705743355625381 -3.161583949866051 -0.019566597653417575
1.6743956809138525 -4.092462114440489 -0.02182073350624389
1.634409530403872 -4.938306305954321 -0.024597450187826216
1.5857437999987725 -5.6785192262689685 -0.02714994386181696
1.528778920041904 -6.292183278022138 -0.029052770301874295
1.4625563875456187 -6.7594034932427505 -0.030213057396996597
1.3877870389925304 -7.066125506463984 -0.03200191635677408
1.3212960280602974 -7.194040362278522 -0.03829045695299084
1.2548294259508053 -7.066699656210045 -0.03257461696392187
1.1801341256119966 -6.760550811650727 -0.031352434415079525
1.1140373636910987 -6.29390099330767 -0.030733877780668727
1.0572523335521433 -5.680800349844373 -0.029300901659611182
1.0088220744318086 -4.941132912888836 -0.02705233133080679
0.9691341960365154 -4.095788603167234 -0.024250973375655786
0.9381617187736613 -3.165289085474605 -0.021398091828966827
0.9152157840175781 -2.169724273682889 -0.01922791415436316
0.9009590330628761 -1.1309359869637707 -0.018506562115980316
0.8984431618648209 -0.08469295541428587 -0.02068505831562637
2.172904371119625 -0.08819842795068866 -0.03656959387423402
2.165060407754303 -1.1279605835300694 -0.031017716490232456
2.1401871618549184 -2.162142440056668 -0.03251440314887578
2.0960808687584325 -3.1559953417372997 -0.03723598268873847
2.0338318074441637 -4.085079464118535 -0.04319603047950832
1.9540207211773541 -4.929035152837251 -0.04886720783069148
1.856967190989336 -5.667311367690495 -0.05321171888829071
1.7430107240290031 -6.279269977580759 -0.05548578073821432
1.6139626177048598 -6.743628090568979 -0.05561761186273445
1.4649131677719884 -7.049400731761685 -0.053884852829451615
1.3214335160445447 -7.198761832849247 -0.060559948118553204
1.1779776476775365 -7.049991156137725 -0.05461863546995345
1.028999490806173 -6.744807631589552 -0.05708663028660963
0.9000692748916793 -6.281034761020539 -0.05767846732759392
0.7862730969575713 -5.66965148251968 -0.056071511758544725
0.6894108818525501 -4.93192726836382 -0.05223689557752409
0.6097982515994385 -4.088469948333907 -0.04673136659497569
0.5477074669594457 -3.1597401978341253 -0.04029727132194014
0.5036500041825792 -2.1658240487254248 -0.0341034336638667
0.4787156948154231 -1.1306428655442171 -0.029962823580265956
0.47088732975034936 -0.08882385582955164 -0.03235281901301787
2.603284091416216 -0.08951146932941315 -0.044261543328404526
2.5927454298704307 -1.1267533821840585 -0.040540711459019926
2.558131649875076 -2.156459320873743 -0.04603475324967003
2.492651148791128 -3.146694706546344 -0.054974711999885004
2.399313872226052 -4.072516834333485 -0.06471883979376972
2.2797137838871464 -4.913249937166066 -0.0732604678187463
2.1342529209992995 -5.64836978528347 -0.07922306555297691
1.963417047049816 -6.256907255494485 -0.0816596860068419
1.7691806445570104 -6.719581104581246 -0.07994067639074895
1.5581057964639975 -7.015606119017243 -0.07366533626279041
1.3215663572805874 -7.200000000000002 -0.07084534783103334
1.085050348489782 -7.016215738669065 -0.07456755222764345
0.8740451635342107 -6.7207985778882025 -0.08175580144610722
0.6799217111221344 -6.258727185204417 -0.08439351286198019
0.5092336250515915 -5.650778407557663 -0.08284160864461741
0.36393534130639105 -4.916215824782322 -0.07762777854979912
0.24446569707168242 -4.075970071494436 -0.06949590214636243
0.15112670466202338 -3.1504613734499776 -0.059479118427279924
0.08539167912226585 -2.160089542169062 -0.049144583466426896
0.050364359284756514 -1.1293454100037326 -0.040891988443837866
0.03964859534591091 -0.09010973415886706 -0.04135740009052767
0.0 0.0 0.0
0.04275903224488507 -1.0997674026674176 0.00821935406766206
0.0899325501011076 -2.111264126224653 0.015424054499835041
0.15531675693195154 -3.0857274805803896 0.022254782566880144
0.24505304615462062 -3.999758167921091 0.02709538464143301
0.35951509254929165 -4.833662752595207 0.029550343244085432
0.4983704671762292 -5.567640542082243 0.029425646235316263
0.6618270511154796 -6.182669568808107 0.02676424847951403
0.8519872998018405 -6.659161326994575 0.02212768745563621
1.0729014162378059 -6.972340262805534 0.01713632051162105
1.3208426946452674 -7.086256849445126 0.01474550277696553
1.5687520015583247 -6.972213362229677 0.01714092120301672
1.7895653374705722 -6.658868514054743 0.0221560023941413
1.9795405776814863 -6.182134499474604 0.026857815815706534
2.142699191847791 -5.566754914232472 0.029653459854556946
2.281094857955312 -4.8323017638892285 0.030010448368869926
2.3948613358153525 -3.9978130460360046 0.027913475986374916
2.483535294573664 -3.0831669533926926 0.02356279632628181
2.547336753826867 -2.1081895245536173 0.017547992722776764
2.5912947160819186 -1.0960982671748434 0.01181296951694597
2.6248180976975353 0.0 0.012052900864118721
0.4573028001122534 -0.028373926481921823 0.00029717994686843984
0.47618182625227884 -1.0995942370044405 0.004218044711787326
0.5011324437326691 -2.1188448292392463 0.009732623911457341
0.5458485322182485 -3.095351855124646 0.01470564587152551
0.6061626789630126 -4.01284091777878 0.01829086310595952
0.6829615454077069 -4.8500969277996635 0.020115690420393864
0.7760125962193039 -5.587599029778222 0.02015255412395951
0.8854356291411692 -6.2064105298151375 0.018530364806580914
1.0122452673961484 -6.687332076712838 0.015665350677946645
1.1583037855985157 -7.005685462492327 0.012523815494445326
1.3208245303964041 -7.122964252409995 0.010939229415795775
1.4833056813641126 -7.005547636003264 0.012431875114989444
1.6292409497791016 -6.687014565356493 0.015495198277141523
1.7558299845790546 -6.205830752698369 0.018313402189612596
1.864910793878194 -5.58663795215847 0.019944469912210657
1.957460702160976 -4.848612338463435 0.020004359171982955
2.033540285932353 -4.010697948326458 0.01839817196011112
2.0928387354433546 -3.0924819110832025 0.01521654642010353
2.1360065712975085 -2.1152596894086417 0.010922093489657619
2.1583662662182768 -1.0950783830985191 0.007494593341161502
2.176173511645744 -0.026972355448270667 0.009565471384122164
0.8894985236798612 -0.04891248973373741 -0.0028501175811607615
0.8992076756247447 -1.0991277277795832 -0.00016446639686322058
0.9083501239232623 -2.122316104360779 0.003606513182114676
0.9299906433716663 -3.101451664857934 0.006914474320589928