# vtk DataFile Version 3.0
Some data
ASCII
DATASET UNSTRUCTURED_GRID
POINTS 1029 float
0.0 0.0 0.0
0.8 0.0 0.0
1.6 0.0 0.0
2.4000000000000004 0.0 0.0
3.2 0.0 0.0
4.0 0.0 0.0
4.800000000000001 0.0 0.0
5.6000000000000005 0.0 0.0
6.4 0.0 0.0
7.2 0.0 0.0
8.0 0.0 0.0
8.8 0.0 0.0
9.600000000000001 0.0 0.0
10.4 0.0 0.0
11.200000000000001 0.0 0.0
12.0 0.0 0.0
12.8 0.0 0.0
13.600000000000001 0.0 0.0
14.4 0.0 0.0
15.200000000000001 0.0 0.0
16.0 0.0 0.0
0.0 0.3333333333333333 0.0
0.8 0.3333333333333333 0.0
1.6 0.3333333333333333 0.0
2.4000000000000004 0.3333333333333333 0.0
3.2 0.3333333333333333 0.0
4.0 0.3333333333333333 0.0
4.800000000000001 0.3333333333333333 0.0
5.6000000000000005 0.3333333333333333 0.0
6.4 0.3333333333333333 0.0
7.2 0.3333333333333333 0.0
8.0 0.3333333333333333 0.0
8.8 0.3333333333333333 0.0
9.600000000000001 0.3333333333333333 0.0
10.4 0.3333333333333333 0.0
11.200000000000001 0.3333333333333333 0.0
12.0 0.3333333333333333 0.0
12.8 0.3333333333333333 0.0
13.600000000000001 0.3333333333333333 0.0
14.4 0.3333333333333333 0.0
15.200000000000001 0.3333333333333333 0.0
16.0 0.3333333333333333 0.0
0.0 0.6666666666666666 0.0
0.8 0.6666666666666666 0.0
1.6 0.6666666666666666 0.0
2.4000000000000004 0.6666666666666666 0.0
3.2 0.6666666666666666 0.0
4.0 0.6666666666666666 0.0
4.800000000000001 0.6666666666666666 0.0
5.6000000000000005 0.6666666666666666 0.0
6.4 0.6666666666666666 0.0
7.2 0.6666666666666666 0.0
8.0 0.6666666666666666 0.0
8.8 0.6666666666666666 0.0
9.600000000000001 0.6666666666666666 0.0
10.4 0.6666666666666666 0.0
11.200000000000001 0.6666666666666666 0.0
12.0 0.6666666666666666 0.0
12.8 0.6666666666666666 0.0
13.600000000000001 0.6666666666666666 0.0
14.4 0.6666666666666666 0.0
15.200000000000001 0.6666666666666666 0.0
16.0 0.6666666666666666 0.0
0.0 1.0 0.0
0.8 1.0 0.0
1.6 1.0 0.0
2.4000000000000004 1.0 0.0
3.2 1.0 0.0
4.0 1.0 0.0
4.800000000000001 1.0 0.0
5.6000000000000005 1.0 0.0
6.4 1.0 0.0
7.2 1.0 0.0
8.0 1.0 0.0
8.8 1.0 0.0
9.600000000000001 1.0 0.0
10.4 1.0 0.0
11.200000000000001 1.0 0.0
12.0 1.0 0.0
12.8 1.0 0.0
13.600000000000001 1.0 0.0
14.4 1.0 0.0
15.200000000000001 1.0 0.0
16.0 1.0 0.0
0.0 1.3333333333333333 0.0
0.8 1.3333333333333333 0.0
1.6 1.3333333333333333 0.0
2.4000000000000004 1.3333333333333333 0.0
3.2 1.3333333333333333 0.0
4.0 1.3333333333333333 0.0
4.800000000000001 1.3333333333333333 0.0
5.6000000000000005 1.3333333333333333 0.0
6.4 1.3333333333333333 0.0
7.2 1.3333333333333333 0.0
8.0 1.3333333333333333 0.0
8.8 1.3333333333333333 0.0
9.600000000000001 1.3333333333333333 0.0
10.4 1.3333333333333333 0.0
11.200000000000001 1.3333333333333333 0.0
12.0 1.3333333333333333 0.0
12.8 1.3333333333333333 0.0
13.600000000000001 1.3333333333333333 0.0
14.4 1.3333333333333333 0.0
15.200000000000001 1.3333333333333333 0.0
16.0 1.3333333333333333 0.0
0.0 1.6666666666666665 0.0
0.8 1.6666666666666665 0.0
1.6 1.6666666666666665 0.0
2.4000000000000004 1.6666666666666665 0.0
3.2 1.6666666666666665 0.0
4.0 1.6666666666666665 0.0
4.800000000000001 1.6666666666666665 0.0
5.6000000000000005 1.6666666666666665 0.0
6.4 1.6666666666666665 0.0
7.2 1.6666666666666665 0.0
8.0 1.6666666666666665 0.0
8.8 1.6666666666666665 0.0
9.600000000000001 1.6666666666666665 0.0
10.4 1.6666666666666665 0.0
11.200000000000001 1.6666666666666665 0.0
12.0 1.6666666666666665 0.0
12.8 1.6666666666666665 0.0
13.600000000000001 1.6666666666666665 0.0
14.4 1.6666666666666665 0.0
15.200000000000001 1.6666666666666665 0.0
16.0 1.6666666666666665 0.0
0.0 2.0 0.0
0.8 2.0 0.0
1.6 2.0 0.0
2.4000000000000004 2.0 0.0
3.2 2.0 0.0
4.0 2.0 0.0
4.800000000000001 2.0 0.0
5.6000000000000005 2.0 0.0
6.4 2.0 0.0
7.2 2.0 0.0
8.0 2.0 0.0
8.8 2.0 0.0
9.600000000000001 2.0 0.0
10.4 2.0 0.0
11.200000000000001 2.0 0.0
12.0 2.0 0.0
12.8 2.0 0.0
13.600000000000001 2.0 0.0
14.4 2.0 0.0
15.200000000000001 2.0 0.0
16.0 2.0 0.0
0.0 0.0 1.6666666666666667
0.8 0.0 1.6666666666666667
1.6 0.0 1.6666666666666667
2.4000000000000004 0.0 1.6666666666666667
3.2 0.0 1.6666666666666667
4.0 0.0 1.6666666666666667
4.800000000000001 0.0 1.6666666666666667
5.6000000000000005 0.0 1.6666666666666667
6.4 0.0 1.6666666666666667
7.2 0.0 1.6666666666666667
8.0 0.0 1.6666666666666667
8.8 0.0 1.6666666666666667
9.600000000000001 0.0 1.6666666666666667
10.4 0.0 1.6666666666666667
11.200000000000001 0.0 1.6666666666666667
12.0 0.0 1.6666666666666667
12.8 0.0 1.6666666666666667
13.600000000000001 0.0 1.6666666666666667
14.4 0.0 1.6666666666666667
15.200000000000001 0.0 1.6666666666666667
16.0 0.0 1.6666666666666667
0.0 0.3333333333333333 1.6666666666666667
0.8 0.3333333333333333 1.6666666666666667
1.6 0.3333333333333333 1.6666666666666667
2.4000000000000004 0.3333333333333333 1.6666666666666667
3.2 0.3333333333333333 1.6666666666666667
4.0 0.3333333333333333 1.6666666666666667
4.800000000000001 0.3333333333333333 1.6666666666666667
5.6000000000000005 0.3333333333333333 1.6666666666666667
6.4 0.3333333333333333 1.6666666666666667
7.2 0.3333333333333333 1.6666666666666667
8.0 0.3333333333333333 1.6666666666666667
8.8 0.3333333333333333 1.6666666666666667
9.600000000000001 0.3333333333333333 1.6666666666666667
10.4 0.3333333333333333 1.6666666666666667
11.200000000000001 0.3333333333333333 1.6666666666666667
12.0 0.3333333333333333 1.6666666666666667
12.8 0.3333333333333333 1.6666666666666667
13.600000000000001 0.3333333333333333 1.6666666666666667
14.4 0.3333333333333333 1.6666666666666667
15.200000000000001 0.3333333333333333 1.6666666666666667
16.0 0.3333333333333333 1.6666666666666667
0.0 0.6666666666666666 1.6666666666666667
0.8 0.6666666666666666 1.6666666666666667
1.6 0.6666666666666666 1.6666666666666667
2.4000000000000004 0.6666666666666666 1.6666666666666667
3.2 0.6666666666666666 1.6666666666666667
4.0 0.6666666666666666 1.6666666666666667
4.800000000000001 0.6666666666666666 1.6666666666666667
5.6000000000000005 0.6666666666666666 1.6666666666666667
6.4 0.6666666666666666 1.6666666666666667
7.2 0.6666666666666666 1.6666666666666667
8.0 0.6666666666666666 1.6666666666666667
8.8 0.6666666666666666 1.6666666666666667
9.600000000000001 0.6666666666666666 1.6666666666666667
10.4 0.6666666666666666 1.6666666666666667
11.200000000000001 0.6666666666666666 1.6666666666666667
12.0 0.6666666666666666 1.6666666666666667
12.8 0.6666666666666666 1.6666666666666667
13.600000000000001 0.6666666666666666 1.6666666666666667
14.4 0.6666666666666666 1.6666666666666667
15.200000000000001 0.6666666666666666 1.6666666666666667
16.0 0.6666666666666666 1.6666666666666667
0.0 1.0 1.6666666666666667
0.8 1.0 1.6666666666666667
1.6 1.0 1.6666666666666667
2.4000000000000004 1.0 1.6666666666666667
3.2 1.0 1.6666666666666667
4.0 1.0 1.6666666666666667
4.800000000000001 1.0 1.6666666666666667
5.6000000000000005 1.0 1.6666666666666667
6.4 1.0 1.6666666666666667
7.2 1.0 1.6666666666666667
8.0 1.0 1.6666666666666667
8.8 1.0 1.6666666666666667
9.600000000000001 1.0 1.6666666666666667
10.4 1.0 1.6666666666666667
11.200000000000001 1.0 1.6666666666666667
12.0 1.0 1.6666666666666667
12.8 1.0 1.6666666666666667
13.600000000000001 1.0 1.6666666666666667
14.4 1.0 1.6666666666666667
15.200000000000001 1.0 1.6666666666666667
16.0 1.0 1.6666666666666667
0.0 1.3333333333333333 1.6666666666666667
0.8 1.3333333333333333 1.6666666666666667
1.6 1.3333333333333333 1.6666666666666667
2.4000000000000004 1.3333333333333333 1.6666666666666667
3.2 1.3333333333333333 1.6666666666666667
4.0 1.3333333333333333 1.6666666666666667
4.800000000000001 1.3333333333333333 1.6666666666666667
5.6000000000000005 1.3333333333333333 1.6666666666666667
6.4 1.3333333333333333 1.6666666666666667
7.2 1.3333333333333333 1.6666666666666667
8.0 1.3333333333333333 1.6666666666666667
8.8 1.3333333333333333 1.6666666666666667
9.600000000000001 1.3333333333333333 1.6666666666666667
10.4 1.3333333333333333 1.6666666666666667
11.200000000000001 1.3333333333333333 1.6666666666666667
12.0 1.3333333333333333 1.6666666666666667
12.8 1.3333333333333333 1.6666666666666667
13.600000000000001 1.3333333333333333 1.6666666666666667
14.4 1.3333333333333333 1.6666666666666667
15.200000000000001 1.3333333333333333 1.6666666666666667
16.0 1.3333333333333333 1.6666666666666667
0.0 1.6666666666666665 1.6666666666666667
0.8 1.6666666666666665 1.6666666666666667
1.6 1.6666666666666665 1.6666666666666667
2.4000000000000004 1.6666666666666665 1.6666666666666667
3.2 1.6666666666666665 1.6666666666666667
4.0 1.6666666666666665 1.6666666666666667
4.800000000000001 1.6666666666666665 1.6666666666666667
5.6000000000000005 1.6666666666666665 1.6666666666666667
6.4 1.6666666666666665 1.6666666666666667
7.2 1.6666666666666665 1.6666666666666667
8.0 1.6666666666666665 1.6666666666666667
8.8 1.6666666666666665 1.6666666666666667
9.600000000000001 1.6666666666666665 1.6666666666666667
10.4 1.6666666666666665 1.6666666666666667
11.200000000000001 1.6666666666666665 1.6666666666666667
12.0 1.6666666666666665 1.6666666666666667
12.8 1.6666666666666665 1.6666666666666667
13.600000000000001 1.6666666666666665 1.6666666666666667
14.4 1.6666666666666665 1.6666666666666667
15.200000000000001 1.6666666666666665 1.6666666666666667
16.0 1.6666666666666665 1.6666666666666667
0.0 2.0 1.6666666666666667
0.8 2.0 1.6666666666666667
1.6 2.0 1.6666666666666667
2.4000000000000004 2.0 1.6666666666666667
3.2 2.0 1.6666666666666667
4.0 2.0 1.6666666666666667
4.800000000000001 2.0 1.6666666666666667
5.6000000000000005 2.0 1.6666666666666667
6.4 2.0 1.6666666666666667
7.2 2.0 1.6666666666666667
8.0 2.0 1.6666666666666667
8.8 2.0 1.6666666666666667
9.600000000000001 2.0 1.6666666666666667
10.4 2.0 1.6666666666666667
11.200000000000001 2.0 1.6666666666666667
12.0 2.0 1.6666666666666667
12.8 2.0 1.6666666666666667
13.600000000000001 2.0 1.6666666666666667
14.4 2.0 1.6666666666666667
15.200000000000001 2.0 1.6666666666666667
16.0 2.0 1.6666666666666667
0.0 0.0 3.3333333333333335
0.8 0.0 3.3333333333333335
1.6 0.0 3.3333333333333335
2.4000000000000004 0.0 3.3333333333333335
[...]
POINT_DATA 1029
VECTORS Disp float
0.0 0.0 0.0
0.01646363271360407 -0.5969958680507319 0.014289809129781577
0.03964554387752685 -1.124978935179663 0.030768952425627844
0.07170788565874324 -1.6335574166915279 0.04392839344982679
0.11733459312579574 -2.108942866462328 0.05585272822271476
0.17716559345455446 -2.5399271442263327 0.0657117126686826
0.250953927127023 -2.914667616476159 0.07309524809162532
0.3382532311421109 -3.2217119698578682 0.07747880801487364
0.43787046640507177 -3.4498960512929493 0.07849524243503435
0.5468419150829632 -3.589688161232645 0.07674520461009353
0.6602548092891023 -3.6362688018056235 0.07516134414676431
0.7737080101358573 -3.590370223386347 0.0768083119194631
0.8828082423393898 -3.4512760835365377 0.07864359548274365
0.982667389042225 -3.2238190225176595 0.07776137285967408
1.0703664252263851 -2.9175364957387964 0.0735963218588729
1.1447830497703446 -2.5435804236428665 0.06656656898447925
1.2055701407370316 -2.113359347046675 0.057253094491580656
1.2526217150249643 -1.6386176645769468 0.04620483864608453
1.2867593618903277 -1.1304495116942785 0.034128055316278876
1.313520951411711 -0.6024365161734808 0.02028938085580249
1.3385762021580454 0.0 -0.00011584237897637847
0.2343059549507379 -0.025493317506688772 -0.00750285486299484
0.24441868239223136 -0.5943457874480239 0.007485853946180495
0.25257139678758606 -1.1285733087993468 0.01949167095891278
0.2735814730841201 -1.637779847023773 0.029666900659239295
0.3032221433324406 -2.115016319926334 0.03818310920766596
0.34235787047849087 -2.5476239907050533 0.04519039647151127
0.3907646210926181 -2.924003610393585 0.050383101119652524
0.4481352052252967 -3.2326205434795936 0.053521862851499416
0.5136869519419245 -3.4621702418965143 0.054442056459287
0.5855125247857553 -3.602756638882941 0.053520927167884265
0.6603776701090589 -3.649382391052941 0.05254116551847688
0.7352854375049073 -3.6034499241026188 0.05349920656111246
0.80724616525505 -3.4635748171261973 0.05441744140469703
0.8730480651314219 -3.234769881942027 0.05353702325281591
0.9308233704873996 -2.926939558160409 0.05051528622422104
0.9798490496353937 -2.5513798436153228 0.04556519458826296
1.0199021944302327 -2.119583204986945 0.03900427696610797
1.0508636533741664 -1.6430561494784857 0.031206249038096576
1.0737867374874732 -1.134353964453312 0.022282528065944142
1.0846672559226254 -0.6002172238863903 0.011566237315769803
1.0962421309526988 -0.026903275996337763 -0.0030258787543913966
0.45550387469849984 -0.04426295134651773 -0.012261024709753777
0.460718418935864 -0.5934564061682515 -0.0006635110361982899
0.4616282728855314 -1.1293883383204586 0.007907651179199239
0.46978044997974333 -1.6403306447730417 0.014226040296962757
0.483782155502489 -2.118499832626133 0.01906048509546114
0.5026205899030287 -2.5521352111582467 0.022750363242039374
0.5262702119490248 -2.9294906001782115 0.02531835043688612
0.5546134806872061 -3.239087586111714 0.026712032241397142
0.5874416009850055 -3.4694826513409294 0.026904775279812703
0.6236225140283653 -3.6102389865576523 0.025962918652002454
0.6604750858346975 -3.6560715876841536 0.024901088306568894
0.6973710980510385 -3.6109444027769535 0.025856512693582252
0.7336889197357395 -3.470913343170976 0.02670716667079138
0.7667673265038446 -3.2412807599702282 0.026459322904765024
0.7955078386971739 -2.9324939025725607 0.025079057506060445
0.8197500870708276 -2.555990237539767 0.022644434080142235
0.8394401656284015 -2.1232088341895308 0.019282799320392837
0.8546283865393914 -1.6457970177633996 0.015085162281371935
0.864366333012586 -1.1354206322707252 0.009836413804769918
0.8665726314628649 -0.5991207655593166 0.002588365381954501
0.8724162737184352 -0.04643486784538661 -0.007705359771408465
0.6702002295469993 -0.05629189796507358 -0.016510577635123903
0.671601530582793 -0.593607195995384 -0.00858954678784558
0.6670043697031995 -1.1287109973662284 -0.0037977091213386655
0.6635757653801375 -1.6408346353969436 -0.001565503617179456
0.6617570014442037 -2.1195466643565712 -0.0006325102020533491
0.6605324989106859 -2.5535391005843264 -0.0004217564348147258
0.6597033956437126 -2.9312596796084245 -0.0006745156334247724
0.6593963683878893 -3.2412829704890846 -0.0012513771091491183
0.660084339295027 -3.4720916929376795 -0.0020228480772578198
0.6614775264500354 -3.6122349134978347 -0.0031409546239210395
0.6605619822421346 -3.6556602684549544 -0.00449080466613124
0.6596900625563755 -3.6129530039891904 -0.003332671234356635
0.661219935922655 -3.473549369426203 -0.0023949152149999454
0.6621547657360627 -3.2435206142719415 -0.0017748250283571997
0.6622320154163122 -2.934329485551548 -0.0012895925071129764
0.6619601286637389 -2.557489453385266 -0.001016771559177221
0.661505859330071 -2.124386154672999 -0.0010130812521741686
0.6607088367092028 -1.6464744909741227 -0.0014168977853308712
0.658401756732083 -1.1348163667935987 -0.002694222651235298
0.6544968864265064 -0.5990459342382295 -0.0061551825509462066
0.6562452348604152 -0.05902774420901645 -0.012670048576129748
0.8831376884999759 -0.06273110817091859 -0.020877459255687632
0.8811715050859174 -0.5938479360613426 -0.016116028239386626
0.8714789530605976 -1.1270533091585921 -0.015310417724055437
0.857335549934062 -1.6394312768269432 -0.017267932453448234
0.8398224012982498 -2.118117835436822 -0.02029030847064578
0.8184607894178825 -2.5518667055708777 -0.023570228569646794
0.7931884356233772 -2.9293317109443344 -0.026656647473131432
0.7641590309261675 -3.2391998432977025 -0.029225712027771383
0.7324873971237603 -3.4701199166580206 -0.030920396633758652
0.6995198021374105 -3.6090802060762477 -0.03166323370401469
0.6606512218914053 -3.6471378729538984 -0.032874428696273335
0.6218266506012718 -3.6098114049649226 -0.03194167182948064
0.5889960898066542 -3.47160525334736 -0.03147006928604003
0.5575687837869924 -3.2414823308457823 -0.030025351050939154
0.5289118300657192 -2.932467045747648 -0.027656281952149368
0.5041613582732333 -2.555907062624718 -0.02466701135394649
0.4834851950998308 -2.1230775837901974 -0.021292728947476053
0.4667919389213354 -1.6452017111581099 -0.017854637618189843
0.45341131199341306 -1.133171897801867 -0.01502620302141647
0.44411452996016587 -0.5991432234524667 -0.014520603658357044
0.4423378359933404 -0.06582518158348447 -0.017876356328673938
1.0974994884828104 -0.06514041326472536 -0.02558099235015968
1.0928779530465313 -0.5935992011468673 -0.023217749133357928
1.0782856211539051 -1.1245648640623915 -0.026369359204522796
1.0537985392079803 -1.6362579401239346 -0.032452473202215185
1.0205346728383295 -2.1141911364773116 -0.039310242229786144
0.9788128625021674 -2.547078013081919 -0.045928866977979044
0.9287716233298652 -2.9237173493570485 -0.05169241288667025
0.8708255396370962 -3.232710221540603 -0.056061997611276754
0.8053665776905444 -3.4634264077595462 -0.05850912203780185
0.7375060174650266 -3.6016679616508678 -0.057676339625066214
0.6607558743409981 -3.628959111002017 -0.05653362466276754
0.5840512430084952 -3.602412862164298 -0.05804365270061254
0.5163314334938983 -3.46494038376849 -0.05924111327346892
0.4511199796506444 -3.2350384338585787 -0.057145936762469055
0.3935427085353751 -2.9269176448910126 -0.0530893218001231
0.343999447412383 -2.5512038619880193 -0.047546436838249634
0.30288481520030136 -2.1192544451304323 -0.04096219283260673
0.2702477044426057 -1.642122720830324 -0.033806980711208176
0.24622353444305053 -1.1306906102443235 -0.02692483400050564
0.2317946954395535 -0.598823634049644 -0.022454890846350068
0.22722099469864027 -0.0684068138694889 -0.023391587278891974
1.3150498859421627 -0.06563174822465535 -0.030459668519228288
1.3098130024397197 -0.592764301918276 -0.02990865685607666
1.2912743533754958 -1.121293359561029 -0.036596974315446104
1.2560606839973798 -1.6312700095677632 -0.046440382657600754
1.2066528053020167 -2.107689241394051 -0.05674744496749077
1.1441402014868027 -2.5390850960205347 -0.06631172527821676
1.0687391684888532 -2.9142228059913706 -0.07434118319821548
0.9809217760743113 -3.2219435947058135 -0.08008742309929248
0.8815105631222313 -3.4507582672757597 -0.08284272117020555
0.7708855690737779 -3.5913855682703164 -0.07990703628630977
0.66089151141612 -3.5999999999999996 -0.06790547407743858
0.5509467206005396 -3.5921453136709927 -0.08036599819318557
0.4404730141341753 -3.4523029399678844 -0.08376303438148028
0.3413239845781996 -3.224319892129825 -0.08146580756622777
0.25388845484528383 -2.9174894611560975 -0.07615100632722824
0.1789842941409005 -2.5432933139507465 -0.0684729094795221
0.11703114889314128 -2.1128388842506536 -0.059079892297337025
0.06808779998990473 -1.637192679869577 -0.048597629845939905
0.03300906428287461 -1.1274069152790434 -0.03801544355266812
0.014278353476470723 -0.597943818293563 -0.029951777291539586
0.008905604600634356 -0.06893464708076974 -0.02898662932149668
0.0 0.0 0.0
0.015400136274194513 -0.5642518465378519 0.009511520010642425
0.03904465023896654 -1.0791158676794599 0.01816653158650338
0.0725149864522669 -1.5736681764437301 0.02621050326441727
0.11871469484461011 -2.0362769242983454 0.032418289780326376
0.17811106821035166 -2.456658644190153 0.03677582338405815
0.2504886969719954 -2.8242015928866655 0.03898418132363589
0.33550242679705106 -3.128713326327059 0.038839122349418644
0.4328157219669875 -3.360221508285014 0.03643637257859404
0.5420301872527254 -3.5082468188470814 0.03280064460944484
0.6603882179522099 -3.5606367583520435 0.030697581037244955
0.7787599965500487 -3.5085144156797394 0.03282225722054838
0.8880176232620215 -3.360755876511924 0.03649519580923683
0.9854099784118349 -3.1295125273791773 0.038969589523223463
1.0705522331904593 -2.8252612507531563 0.039245979009923077
1.1431343690484372 -2.4579669920409835 0.03725931194996739
1.2028586068865428 -2.0378027134955814 0.033260397158690676
1.249601948661169 -1.5753352423875853 0.027556087741624914
1.283956006531094 -1.080774603559321 0.02041006222496055
1.3093462089387795 -0.5658388277582881 0.012099596384657149
1.328895436699435 0.0 0.010620622834880128
0.22767627964504006 -0.016405496341453565 0.0014019292180398003
0.23689503181159344 -0.5634307129814609 0.004360894727164598
0.24815294876174668 -1.0827588271636868 0.011341628780030907
0.2706335584127722 -1.578227808667797 0.017066046166092644
0.3013898932045061 -2.042543427914789 0.02150420551298264
0.34094815514175403 -2.4645186644103765 0.024471488704143955
0.3891557947983486 -2.8336772377598995 0.025924046170994367
0.44575738665270703 -3.1397918787775847 0.025803353123747957
0.5103975220303328 -3.372942479890213 0.024245196917463806
0.5825854955134807 -3.522649668000829 0.021835629364329694
0.6604479995379668 -3.5760875697234673 0.020295299849291754
0.7383240165959613 -3.5229201852276684 0.021779899302635294
0.810554280165326 -3.3734828845968665 0.024145892114472264
0.8752712519091285 -3.140600731726977 0.02568871656365428
0.9319959629420813 -2.8347512464086595 0.02584557943773304
0.9803946534273434 -2.465848434300636 0.024515877348222796
1.0202530917591408 -2.0441024056704795 0.02179936703833044
1.0514863522976647 -1.5799480017171719 0.01782354580894966
1.0747851511616413 -1.0845221298102885 0.01275290877708625
1.0874778971250738 -0.5652423809437676 0.007179208133461882
1.0975186881701455 -0.016688336078129164 0.008037856160610937
0.44632000860100673 -0.028885869887282138 -0.002524008287576691
0.4514309355660994 -0.5633203636535443 -0.00019690187958298414
0.45535528872607206 -1.0841105058431117 0.004388791051056662
0.46565374360844025 -1.5810030545044353 0.008119092674825199
0.4810290864644482 -2.046210623776088 0.01071021955971584
0.5007383062948183 -2.4691536483924263 0.012274327815118021
0.5247803410868321 -2.839251837722493 0.01287644314291853
0.5529353114346113 -3.146264746374387 0.012571831617458866
0.5848118215304734 -3.3803259956128935 0.011431134427362422
0.6204972546290987 -3.53136962020343 0.00950579984207364
0.6605126075108827 -3.586426512245871 0.007805946752687182
0.7005410871602193 -3.531644389398508 0.009373770935562062
0.7362672800019476 -3.380875048872363 0.01117621811341098
0.76821662188041 -3.1470869537021873 0.012216934607568425
0.7964850478616476 -2.840344485106316 0.01246784470708939
0.8206970272530378 -2.47050879411119 0.011895696442899697
0.8406619267390132 -2.047804843887808 0.010503008586595725
0.8564353200670438 -1.5827727064133932 0.008299869692359333
0.8673947624516548 -1.0859729739950315 0.0052772237965074045
0.8720098036714916 -0.5650240357756839 0.0021454632317594825
0.8774264644645805 -0.029150615070794222 0.0024881239379423974
0.6604546339282127 -0.037269475217847556 -0.007814708638994191
0.6621870489174317 -0.56370587353982 -0.005207432455500321
0.660291478970021 -1.084050911858763 -0.0025452511308181654
0.6592750111611807 -1.5818195862421098 -0.000851575329009987
0.6590864589483252 -2.047439642519244 -0.00011698690402641884
0.6589674534505428 -2.4706854418528565 -2.2251808045629175e-05
0.6588411422518534 -2.8410956601673982 -0.0003526733329885137
0.6586254677406714 -3.1483218078865747 -0.0009802311930043604
0.6578412478742882 -3.3825664614595734 -0.0018761104838833096
0.6572022356388407 -3.5349092185608266 -0.0034992201326116707
0.6605796103748136 -3.5930410998634503 -0.005807056601687954
0.6639696355334814 -3.535189506623329 -0.0037076929269589916
0.6633694836236429 -3.38312660477171 -0.00228686552441077
0.6626530913863612 -3.1491607059007554 -0.001575327716260582
0.6625391113926246 -2.8422105392519184 -0.0010906990605410586
0.6625568820558264 -2.472068738063206 -0.0008193265771849887
0.6626408851518775 -2.0490684826036576 -0.0008206548338154652
0.6627555477485901 -1.583638584156465 -0.0012119713870432426
0.6621486377377529 -1.085931499180189 -0.0021661757109251376
0.6605693525913413 -0.5652480176115234 -0.0034335984609159503
0.6624510941376103 -0.03754790451256655 -0.003932517361096643
0.8731188503776337 -0.04204380638017654 -0.013274812127868456
0.8717860513865001 -0.5640511518712201 -0.010420866538453782
0.8645425260385579 -1.0829986428367029 -0.009445420592925465
0.8528716778126368 -1.5807919749328583 -0.009783298826637574
0.8371978404568803 -2.0462310572200613 -0.010910366753022895
0.8172047652018979 -2.4691531529769573 -0.012298725093782851
0.7928718999993535 -2.8392596131343035 -0.013574971930747156
0.7643894600209233 -3.1460916390109377 -0.014526385150748332
0.7312781937727741 -3.3797017466212433 -0.015106528698279956
0.6938935194962211 -3.533062753231897 -0.016000958178137546
0.6606480140301092 -3.5970201811391647 -0.019145228476213808
0.6274147129753791 -3.5333498281047175 -0.016287308481641376
0.5900670628059616 -3.3802754058249462 -0.015676217207182947
0.5570186818455187 -3.1469504966533397 -0.015366938889935138
0.528626166776053 -2.840400174921629 -0.01465045082936502
0.5044110372158996 -2.470566456443883 -0.01352616566492573
0.48456709801827286 -2.0478943015830553 -0.012125486687316233
0.46908085938686056 -1.5826445427368356 -0.010699045913940847
0.4576078920088321 -1.0848621368410876 -0.009613957076606117
0.4504795165314894 -0.5654679934816669 -0.009253281057381347
0.44922158093246145 -0.042346477707081775 -0.010342529157168127
1.0864521855597304 -0.04409921397531474 -0.018284796937112824
1.0825302038770706 -0.5639802917649593 -0.015508858245090459
1.0700935809273817 -1.0810712200282064 -0.01625720157438954
1.0480404343791578 -1.5779976708684873 -0.01861799134429505
1.0169159037220246 -2.042539732059084 -0.021598015239648567
0.9770103605886367 -2.464517576418439 -0.024433603915202173
0.9284835954946414 -2.8336556838450404 -0.02660585944396969
0.8715053620144748 -3.139634988790243 -0.027742890368894484
0.8069813088524048 -3.3718140452843794 -0.027808805931124392
0.7324565838859405 -3.5247003658807285 -0.026942426414459836
0.6607167580222045 -3.5993809164245736 -0.030279974058977335
0.5889888238387052 -3.524995578068556 -0.027309317734640636
0.5144997454030119 -3.3724038157943306 -0.028543315142923138
0.4500346374457826 -3.1405173805097824 -0.028839233663366978
0.3931365484787574 -2.834825741259272 -0.028035755878800618
0.3447054409262758 -2.465963634181362 -0.026118447788254704
0.3048991257997509 -2.0442349741664017 -0.02336568329694856
0.2738537334797921 -1.5798700989165964 -0.020148635660403504
0.2518250020913824 -1.0829120243623482 -0.017051716831340186
0.2393578474078167 -0.565321432771893 -0.014981411789510745
0.23544366487528554 -0.04441192791471134 -0.01617640950585018
1.3016420457080062 -0.044755734664678345 -0.02213077166419838
1.2963727149351207 -0.5633766910919519 -0.020270355729484848
1.2790658249374478 -1.0782296604367505 -0.02301737662478489
1.2463255743954786 -1.573347353273016 -0.027487355999864856
1.1996569361129668 -2.036258417166551 -0.03235941989677418
1.139856891943532 -2.456624968582851 -0.036630233909218574
1.0671264604996304 -2.8241848926415263 -0.039611532776294034
0.9817085235248934 -3.12845362774711 -0.040829843003182265
0.8845903222784787 -3.3597905522904954 -0.03997033819510469
0.7790528982319621 -3.5078030595085052 -0.03683266813110772
0.6607831786401999 -3.5999999999999996 -0.035422673915208244
0.5425251742447468 -3.508107869334254 -0.03728377611346793
0.4370225817669888 -3.3603992889436554 -0.040877900722644814
0.33996085556098854 -3.129363592601713 -0.042196756430530544
0.25461681252575435 -2.8253892037782764 -0.04142080432180395
0.18196767065319985 -2.4581079123906164 -0.03881388927436602
0.12223284853589117 -2.0379850357466833 -0.03474795107261508
0.07556335233111675 -1.5752306867245311 -0.029739559213051176
0.04269583956127582 -1.0800447710841719 -0.024572291732602242
0.02518217964254525 -0.5646727050016511 -0.020445994221285697
0.019824297673126177 -0.045054867079369176 -0.020678700044595287
0.0 0.0 0.0
0.02137951612241558 -0.5498837013336346 0.004109677033848903
0.04496627505050978 -1.0556320631122218 0.00771202724995498
0.07765837846590984 -1.5428637402900514 0.01112739128349508
0.12252652307722219 -1.9998790839603988 0.013547692320788072
0.17975754627453247 -2.4168313762974565 0.014775171622125025
0.2491852335879882 -2.7838202710410407 0.01471282311775524
0.33091352555762626 -3.0913347844040264 0.013382124239871913
0.4259936499008311 -3.329580663497289 0.011063843727964082
0.5364507081188584 -3.4861701314027673 0.00856816025600106
0.6604213473226267 -3.5431284247224992 0.007372751388703111
0.7843760007791742 -3.4861066811146877 0.008570460601752424
0.8947826687352989 -3.3294342570271134 0.01107800119732397
0.9897702888407337 -3.091067249736952 0.013428907908130928
1.0713495959238792 -2.7833774571158494 0.01482672992759717
1.1405474289775843 -2.4161508819441373 0.015005224184799666
1.1974306679075526 -1.9989065230175826 0.013956737993602803
1.241767647286677 -1.5415834766959755 0.011781398163603301
1.273668376913248 -1.0540947622765313 0.008773996361899652
1.295647358040742 -0.5480491335872575 0.0059064847590314445
1.3124090488485307 0.0 0.006026450432652313
0.22865140005608892 -0.014186963240950538 0.0001485899734369487
0.2380909131260926 -0.5497971185021497 0.0021090223559127605
0.2505662218662756 -1.059422414619511 0.004866311955768541
0.27292426610905013 -1.5476759275621785 0.007352822935822568
0.3030813394814168 -2.0064204588892425 0.009145431553059115
0.3414807727037546 -2.4250484638996905 0.010057845210294123
0.3880062981095467 -2.793799514889038 0.010076277062097924
0.4427178145704862 -3.10320526490753 0.009265182403431885
0.5061226336979922 -3.343666038356424 0.007832675339147858
0.5791518927992005 -3.502842731246168 0.006261907747426792
0.6604122651981668 -3.5614821262049383 0.005469614708137268
0.7416528406820305 -3.502773818001492 0.006215937557756644
0.8146204748895214 -3.343507282678002 0.007747599138855866
0.877914992289495 -3.102915376348843 0.009156701095122882
0.9324553969390544 -2.7933189760788335 0.009972234956458803
0.978730351080415 -2.4243061692312238 0.01000217958638484
1.0167701429660747 -2.00534897416281 0.009199085980492662
1.046419367721549 -1.5462409555412182 0.007608273210532788
1.0680032856486064 -1.0576298447040429 0.005461046745356637