# vtk DataFile Version 3.0
Some data
ASCII
DATASET UNSTRUCTURED_GRID
POINTS 1029 float
0.0 0.0 0.0
0.8 0.0 0.0
1.6 0.0 0.0
2.4000000000000004 0.0 0.0
3.2 0.0 0.0
4.0 0.0 0.0
4.800000000000001 0.0 0.0
5.6000000000000005 0.0 0.0
6.4 0.0 0.0
7.2 0.0 0.0
8.0 0.0 0.0
8.8 0.0 0.0
9.600000000000001 0.0 0.0
10.4 0.0 0.0
11.200000000000001 0.0 0.0
12.0 0.0 0.0
12.8 0.0 0.0
13.600000000000001 0.0 0.0
14.4 0.0 0.0
15.200000000000001 0.0 0.0
16.0 0.0 0.0
0.0 0.3333333333333333 0.0
0.8 0.3333333333333333 0.0
1.6 0.3333333333333333 0.0
2.4000000000000004 0.3333333333333333 0.0
3.2 0.3333333333333333 0.0
4.0 0.3333333333333333 0.0
4.800000000000001 0.3333333333333333 0.0
5.6000000000000005 0.3333333333333333 0.0
6.4 0.3333333333333333 0.0
7.2 0.3333333333333333 0.0
8.0 0.3333333333333333 0.0
8.8 0.3333333333333333 0.0
9.600000000000001 0.3333333333333333 0.0
10.4 0.3333333333333333 0.0
11.200000000000001 0.3333333333333333 0.0
12.0 0.3333333333333333 0.0
12.8 0.3333333333333333 0.0
13.600000000000001 0.3333333333333333 0.0
14.4 0.3333333333333333 0.0
15.200000000000001 0.3333333333333333 0.0
16.0 0.3333333333333333 0.0
0.0 0.6666666666666666 0.0
0.8 0.6666666666666666 0.0
1.6 0.6666666666666666 0.0
2.4000000000000004 0.6666666666666666 0.0
3.2 0.6666666666666666 0.0
4.0 0.6666666666666666 0.0
4.800000000000001 0.6666666666666666 0.0
5.6000000000000005 0.6666666666666666 0.0
6.4 0.6666666666666666 0.0
7.2 0.6666666666666666 0.0
8.0 0.6666666666666666 0.0
8.8 0.6666666666666666 0.0
9.600000000000001 0.6666666666666666 0.0
10.4 0.6666666666666666 0.0
11.200000000000001 0.6666666666666666 0.0
12.0 0.6666666666666666 0.0
12.8 0.6666666666666666 0.0
13.600000000000001 0.6666666666666666 0.0
14.4 0.6666666666666666 0.0
15.200000000000001 0.6666666666666666 0.0
16.0 0.6666666666666666 0.0
0.0 1.0 0.0
0.8 1.0 0.0
1.6 1.0 0.0
2.4000000000000004 1.0 0.0
3.2 1.0 0.0
4.0 1.0 0.0
4.800000000000001 1.0 0.0
5.6000000000000005 1.0 0.0
6.4 1.0 0.0
7.2 1.0 0.0
8.0 1.0 0.0
8.8 1.0 0.0
9.600000000000001 1.0 0.0
10.4 1.0 0.0
11.200000000000001 1.0 0.0
12.0 1.0 0.0
12.8 1.0 0.0
13.600000000000001 1.0 0.0
14.4 1.0 0.0
15.200000000000001 1.0 0.0
16.0 1.0 0.0
0.0 1.3333333333333333 0.0
0.8 1.3333333333333333 0.0
1.6 1.3333333333333333 0.0
2.4000000000000004 1.3333333333333333 0.0
3.2 1.3333333333333333 0.0
4.0 1.3333333333333333 0.0
4.800000000000001 1.3333333333333333 0.0
5.6000000000000005 1.3333333333333333 0.0
6.4 1.3333333333333333 0.0
7.2 1.3333333333333333 0.0
8.0 1.3333333333333333 0.0
8.8 1.3333333333333333 0.0
9.600000000000001 1.3333333333333333 0.0
10.4 1.3333333333333333 0.0
11.200000000000001 1.3333333333333333 0.0
12.0 1.3333333333333333 0.0
12.8 1.3333333333333333 0.0
13.600000000000001 1.3333333333333333 0.0
14.4 1.3333333333333333 0.0
15.200000000000001 1.3333333333333333 0.0
16.0 1.3333333333333333 0.0
0.0 1.6666666666666665 0.0
0.8 1.6666666666666665 0.0
1.6 1.6666666666666665 0.0
2.4000000000000004 1.6666666666666665 0.0
3.2 1.6666666666666665 0.0
4.0 1.6666666666666665 0.0
4.800000000000001 1.6666666666666665 0.0
5.6000000000000005 1.6666666666666665 0.0
6.4 1.6666666666666665 0.0
7.2 1.6666666666666665 0.0
8.0 1.6666666666666665 0.0
8.8 1.6666666666666665 0.0
9.600000000000001 1.6666666666666665 0.0
10.4 1.6666666666666665 0.0
11.200000000000001 1.6666666666666665 0.0
12.0 1.6666666666666665 0.0
12.8 1.6666666666666665 0.0
13.600000000000001 1.6666666666666665 0.0
14.4 1.6666666666666665 0.0
15.200000000000001 1.6666666666666665 0.0
16.0 1.6666666666666665 0.0
0.0 2.0 0.0
0.8 2.0 0.0
1.6 2.0 0.0
2.4000000000000004 2.0 0.0
3.2 2.0 0.0
4.0 2.0 0.0
4.800000000000001 2.0 0.0
5.6000000000000005 2.0 0.0
6.4 2.0 0.0
7.2 2.0 0.0
8.0 2.0 0.0
8.8 2.0 0.0
9.600000000000001 2.0 0.0
10.4 2.0 0.0
11.200000000000001 2.0 0.0
12.0 2.0 0.0
12.8 2.0 0.0
13.600000000000001 2.0 0.0
14.4 2.0 0.0
15.200000000000001 2.0 0.0
16.0 2.0 0.0
0.0 0.0 1.6666666666666667
0.8 0.0 1.6666666666666667
1.6 0.0 1.6666666666666667
2.4000000000000004 0.0 1.6666666666666667
3.2 0.0 1.6666666666666667
4.0 0.0 1.6666666666666667
4.800000000000001 0.0 1.6666666666666667
5.6000000000000005 0.0 1.6666666666666667
6.4 0.0 1.6666666666666667
7.2 0.0 1.6666666666666667
8.0 0.0 1.6666666666666667
8.8 0.0 1.6666666666666667
9.600000000000001 0.0 1.6666666666666667
10.4 0.0 1.6666666666666667
11.200000000000001 0.0 1.6666666666666667
12.0 0.0 1.6666666666666667
12.8 0.0 1.6666666666666667
13.600000000000001 0.0 1.6666666666666667
14.4 0.0 1.6666666666666667
15.200000000000001 0.0 1.6666666666666667
16.0 0.0 1.6666666666666667
0.0 0.3333333333333333 1.6666666666666667
0.8 0.3333333333333333 1.6666666666666667
1.6 0.3333333333333333 1.6666666666666667
2.4000000000000004 0.3333333333333333 1.6666666666666667
3.2 0.3333333333333333 1.6666666666666667
4.0 0.3333333333333333 1.6666666666666667
4.800000000000001 0.3333333333333333 1.6666666666666667
5.6000000000000005 0.3333333333333333 1.6666666666666667
6.4 0.3333333333333333 1.6666666666666667
7.2 0.3333333333333333 1.6666666666666667
8.0 0.3333333333333333 1.6666666666666667
8.8 0.3333333333333333 1.6666666666666667
9.600000000000001 0.3333333333333333 1.6666666666666667
10.4 0.3333333333333333 1.6666666666666667
11.200000000000001 0.3333333333333333 1.6666666666666667
12.0 0.3333333333333333 1.6666666666666667
12.8 0.3333333333333333 1.6666666666666667
13.600000000000001 0.3333333333333333 1.6666666666666667
14.4 0.3333333333333333 1.6666666666666667
15.200000000000001 0.3333333333333333 1.6666666666666667
16.0 0.3333333333333333 1.6666666666666667
0.0 0.6666666666666666 1.6666666666666667
0.8 0.6666666666666666 1.6666666666666667
1.6 0.6666666666666666 1.6666666666666667
2.4000000000000004 0.6666666666666666 1.6666666666666667
3.2 0.6666666666666666 1.6666666666666667
4.0 0.6666666666666666 1.6666666666666667
4.800000000000001 0.6666666666666666 1.6666666666666667
5.6000000000000005 0.6666666666666666 1.6666666666666667
6.4 0.6666666666666666 1.6666666666666667
7.2 0.6666666666666666 1.6666666666666667
8.0 0.6666666666666666 1.6666666666666667
8.8 0.6666666666666666 1.6666666666666667
9.600000000000001 0.6666666666666666 1.6666666666666667
10.4 0.6666666666666666 1.6666666666666667
11.200000000000001 0.6666666666666666 1.6666666666666667
12.0 0.6666666666666666 1.6666666666666667
12.8 0.6666666666666666 1.6666666666666667
13.600000000000001 0.6666666666666666 1.6666666666666667
14.4 0.6666666666666666 1.6666666666666667
15.200000000000001 0.6666666666666666 1.6666666666666667
16.0 0.6666666666666666 1.6666666666666667
0.0 1.0 1.6666666666666667
0.8 1.0 1.6666666666666667
1.6 1.0 1.6666666666666667
2.4000000000000004 1.0 1.6666666666666667
3.2 1.0 1.6666666666666667
4.0 1.0 1.6666666666666667
4.800000000000001 1.0 1.6666666666666667
5.6000000000000005 1.0 1.6666666666666667
6.4 1.0 1.6666666666666667
7.2 1.0 1.6666666666666667
8.0 1.0 1.6666666666666667
8.8 1.0 1.6666666666666667
9.600000000000001 1.0 1.6666666666666667
10.4 1.0 1.6666666666666667
11.200000000000001 1.0 1.6666666666666667
12.0 1.0 1.6666666666666667
12.8 1.0 1.6666666666666667
13.600000000000001 1.0 1.6666666666666667
14.4 1.0 1.6666666666666667
15.200000000000001 1.0 1.6666666666666667
16.0 1.0 1.6666666666666667
0.0 1.3333333333333333 1.6666666666666667
0.8 1.3333333333333333 1.6666666666666667
1.6 1.3333333333333333 1.6666666666666667
2.4000000000000004 1.3333333333333333 1.6666666666666667
3.2 1.3333333333333333 1.6666666666666667
4.0 1.3333333333333333 1.6666666666666667
4.800000000000001 1.3333333333333333 1.6666666666666667
5.6000000000000005 1.3333333333333333 1.6666666666666667
6.4 1.3333333333333333 1.6666666666666667
7.2 1.3333333333333333 1.6666666666666667
8.0 1.3333333333333333 1.6666666666666667
8.8 1.3333333333333333 1.6666666666666667
9.600000000000001 1.3333333333333333 1.6666666666666667
10.4 1.3333333333333333 1.6666666666666667
11.200000000000001 1.3333333333333333 1.6666666666666667
12.0 1.3333333333333333 1.6666666666666667
12.8 1.3333333333333333 1.6666666666666667
13.600000000000001 1.3333333333333333 1.6666666666666667
14.4 1.3333333333333333 1.6666666666666667
15.200000000000001 1.3333333333333333 1.6666666666666667
16.0 1.3333333333333333 1.6666666666666667
0.0 1.6666666666666665 1.6666666666666667
0.8 1.6666666666666665 1.6666666666666667
1.6 1.6666666666666665 1.6666666666666667
2.4000000000000004 1.6666666666666665 1.6666666666666667
3.2 1.6666666666666665 1.6666666666666667
4.0 1.6666666666666665 1.6666666666666667
4.800000000000001 1.6666666666666665 1.6666666666666667
5.6000000000000005 1.6666666666666665 1.6666666666666667
6.4 1.6666666666666665 1.6666666666666667
7.2 1.6666666666666665 1.6666666666666667
8.0 1.6666666666666665 1.6666666666666667
8.8 1.6666666666666665 1.6666666666666667
9.600000000000001 1.6666666666666665 1.6666666666666667
10.4 1.6666666666666665 1.6666666666666667
11.200000000000001 1.6666666666666665 1.6666666666666667
12.0 1.6666666666666665 1.6666666666666667
12.8 1.6666666666666665 1.6666666666666667
13.600000000000001 1.6666666666666665 1.6666666666666667
14.4 1.6666666666666665 1.6666666666666667
15.200000000000001 1.6666666666666665 1.6666666666666667
16.0 1.6666666666666665 1.6666666666666667
0.0 2.0 1.6666666666666667
0.8 2.0 1.6666666666666667
1.6 2.0 1.6666666666666667
2.4000000000000004 2.0 1.6666666666666667
3.2 2.0 1.6666666666666667
4.0 2.0 1.6666666666666667
4.800000000000001 2.0 1.6666666666666667
5.6000000000000005 2.0 1.6666666666666667
6.4 2.0 1.6666666666666667
7.2 2.0 1.6666666666666667
8.0 2.0 1.6666666666666667
8.8 2.0 1.6666666666666667
9.600000000000001 2.0 1.6666666666666667
10.4 2.0 1.6666666666666667
11.200000000000001 2.0 1.6666666666666667
12.0 2.0 1.6666666666666667
12.8 2.0 1.6666666666666667
13.600000000000001 2.0 1.6666666666666667
14.4 2.0 1.6666666666666667
15.200000000000001 2.0 1.6666666666666667
16.0 2.0 1.6666666666666667
0.0 0.0 3.3333333333333335
0.8 0.0 3.3333333333333335
1.6 0.0 3.3333333333333335
2.4000000000000004 0.0 3.3333333333333335
[...]
POINT_DATA 1029
VECTORS Disp float
0.0 0.0 0.0
0.020122217761062294 -0.7296616165064659 0.017465322269724724
0.04845566473918959 -1.374974254108506 0.03760649740908782
0.08764297136067599 -1.9965701759563452 0.05369025866088183
0.14340894715373823 -2.5775968367873405 0.06826444560552172
0.21653572533333512 -3.1043553984989125 0.08031431548392591
0.30672146648857884 -3.5623715312487167 0.08933863655640978
0.4134206158403555 -3.937647963159686 0.09469632090704118
0.5351750144950825 -4.216539618246993 0.09593862964278341
0.6683623406569376 -4.387396641506623 0.09379969452340577
0.806978100242204 -4.444328535540271 0.09186386506821592
0.9456431234993363 -4.388230273027858 0.09387682567928445
1.078987851748097 -4.218226324322561 0.09611995003439754
1.2010379199404588 -3.9402232497439567 0.09504167793952817
1.3082256308322175 -3.565877939236476 0.08995106004965402
1.3991792830526268 -3.108820517785913 0.08135913986983762
1.4734746164563723 -2.582994757501669 0.06997600437850368
1.5309820961416376 -2.002754923371975 0.05647258056732786
1.572705886754869 -1.3816605142931169 0.04171206760866085
1.605414496169903 -0.7363112975454351 0.024798132156952438
1.6360375804154308 0.0 -0.00014158513001544191
0.28637394493978746 -0.03115849917484466 -0.009170155943663083
0.29873394514605667 -0.7264226291031559 0.009149377045324673
0.30869837385148763 -1.3793673774214523 0.023823153394214397
0.33437735599169577 -2.0017309241402006 0.03625954525016503
0.37060484185075404 -2.5850199465766797 0.04666824458712741
0.41843739725148316 -3.113762655306241 0.05523270679849024
0.4776012035576404 -3.573782190481121 0.061579345812881325
0.5477208063864679 -3.950980664252906 0.0654156101518002
0.6278396079290122 -4.231541406762463 0.06654029122797728
0.7156264191825774 -4.403369225301426 0.06541446653847792
0.807128263466603 -4.460356255731445 0.0642169800780848
0.8986822013948513 -4.404216573903299 0.06538791913018345
0.9866342019783585 -4.233258109821038 0.06651020616122419
1.0670587462717076 -3.953607633484852 0.0654341395311393
1.1376730083734623 -3.5773705710851154 0.061740905385073146
1.1975932828876863 -3.1183531421966943 0.05569079338556118
1.2465471265258325 -2.59060169498422 0.04767189406958292
1.2843889096795387 -2.008179738251634 0.038140971046445975
1.3124060124846986 -1.386432623220825 0.027234200969358083
1.3257044239054427 -0.7335988291945456 0.014136512274686838
1.3398514933866486 -0.032881781773311775 -0.0036982962555240284
0.5567269579648317 -0.054099162756859574 -0.014985696867479442
0.563100289810499 -0.7253356075389905 -0.0008109579331381011
0.5642123335267579 -1.380363524613922 0.009664906996787048
0.5741761055307946 -2.0048485658337523 0.01738738258515984
0.5912893011697061 -2.589277573209769 0.023296148449986082
0.6143140543259208 -3.1192763691934764 0.0278059995180211
0.6432191479376927 -3.580488511328997 0.030944650533939064
0.6778609208399127 -3.9588848274699364 0.03264803940611435
0.7179841789816671 -4.240478796083415 0.03288361423083812
0.7622052949235514 -4.412514316903858 0.031732456130173774
0.8072473271312803 -4.468531940502907 0.03043466348575002
0.8523424531734634 -4.413376492283038 0.031602404403199114
0.89673090189921 -4.242227419431325 0.03264209259755522
0.937160065726896 -3.961565373297098 0.03233917243907137
0.9722873584076358 -3.5841592142555276 0.030652181396201638
1.0019167730865508 -3.123988068104354 0.02767653054229246
1.0259824246569238 -2.5950330195651596 0.02356786583592191
1.044545805770359 -2.01152968837764 0.01843742056599698
1.056447740348711 -1.3877363283309998 0.012022283539028416
1.0591443273434973 -0.7322587134614549 0.0031635576889087495
1.0662865567669744 -0.05675372736660121 -0.009417661942991448
0.8191336138907794 -0.06880120862398438 -0.020179594887375907
0.820846315156749 -0.7255199062165977 -0.010498334962929338
0.8152275629705793 -1.3795356634476403 -0.004641644481648213
0.811037046575723 -2.0054645543740786 -0.0019133933099032407
0.8088141128762494 -2.5905570342136373 -0.0007730680247560826
0.8073174986686142 -3.1209922340475695 -0.0005154800870261246
0.8063041502312005 -3.582650719521473 -0.0008244079964450131
0.8059288946963035 -3.9615680750422833 -0.0015294609112248491
0.8067697480272514 -4.243667624701671 -0.002472369872252247
0.8084725323278197 -4.414953783164079 -0.0038389445404028396
0.8073535338514869 -4.468029217000542 -0.005488761258662805
0.8062878542355512 -4.415831449320216 -0.004073264842063076
0.8081576994610031 -4.245449229298825 -0.0029271185961954574
0.8093002692329464 -3.9643029729991937 -0.0021692305903086976
0.809394685508809 -3.5864027045631817 -0.0015761686199088389
0.8090623794778852 -3.125820443026625 -0.0012427207946633417
0.808507161403402 -2.59647196682273 -0.0012382104194468004
0.8075330226445634 -2.0123577111907474 -0.0017317639599804687
0.8047132582280828 -1.3869977816367332 -0.0032929387960949586
0.7999406389657111 -0.7321672529579044 -0.007523000895751644
0.8020775092738232 -0.07214502069993108 -0.015485614926542289
1.079390508166643 -0.07667135443112887 -0.025516894645842166
1.0769873951050153 -0.725814144074991 -0.019697367848146158
1.0651409426296237 -1.3775096000827527 -0.018712732773857557
1.0478545610305228 -2.00374933834408 -0.021105250776454913
1.026449601586752 -2.588810687756165 -0.024799265908592594
1.0003409648440764 -3.118948195697799 -0.028808057140711732
0.9694525324285674 -3.5802943133764744 -0.03258034691164624
0.9339721489097549 -3.9590220306972643 -0.03572031470065826
0.8952623742623701 -4.241257675915426 -0.037791595885757846
0.8549686470568367 -4.411098029648801 -0.03869950786052074
0.8074626045339338 -4.457612955832576 -0.04017985729550504
0.7600103507348768 -4.411991717179436 -0.03903982112499683
0.7198841097636759 -4.24307308742468 -0.038463418016361585
0.6814729579618679 -3.9618117377005566 -0.036697651284583736
0.6464477923025308 -3.584126389247304 -0.03380212238607336
0.6161972156672658 -3.123886409874846 -0.030148569432724513
0.5909263495664372 -2.5948726024104176 -0.026024446491490914
0.5705234809038283 -2.0108020914156204 -0.021822334866815646
0.5541693813252515 -1.3849878750912823 -0.0183653592485442
0.5428066477290583 -0.7322861619975272 -0.01774740447147983
0.540635132880715 -0.08045299971317277 -0.021848879957432413
1.3413882637012213 -0.07961606065689289 -0.03126565731686286
1.335739720390213 -0.7255101347350771 -0.028377248940777377
1.3179046480770018 -1.3744681671873977 -0.03222921680554032
1.2879759923653153 -1.9998708157070697 -0.03966413391383768
1.247320155691296 -2.584011389027873 -0.048045851614209975
1.1963268319470934 -3.113095349322402 -0.05613528186200828
1.1351653174031648 -3.5734323158809023 -0.0631796157504199
1.0643423262231124 -3.951090270771922 -0.06852021930272605
0.9843369282884384 -4.23307672059507 -0.07151114915737293
0.9013962435683665 -4.402038619795556 -0.07049330398625513
0.8075905130834422 -4.435394469002484 -0.06909665236566442
0.7138404081214936 -4.402949053756448 -0.07094224218971708
0.6310717520480974 -4.2349271357171725 -0.0724058051121136
0.5513688640174504 -3.9539358636050927 -0.06984503382090573
0.4809966437654478 -3.577343788200306 -0.06488694886693938
0.4204437690595596 -3.1181380535411036 -0.05811231169132743
0.37019255191145123 -2.5901998773818167 -0.050064902351104
0.33030274987425884 -2.0070388810149926 -0.04131964309162271
0.30093987543035144 -1.3819551902987284 -0.03290813044521429
0.2833046277594064 -0.7318955527274102 -0.02744486659014149
0.2777145490760664 -0.08360832806273447 -0.028589717785479432
1.6072831939293224 -0.0802165811634743 -0.03722848374572401
1.6008825585374478 -0.7244897023445763 -0.03655502504632212
1.5782242096811718 -1.3704696616857324 -0.04472963527444623
1.5351852804412498 -1.9937744561384145 -0.056760467692642605
1.474797873146915 -2.57606462837055 -0.0693579882936266
1.3983935795949847 -3.103326228469591 -0.08104766422896639
1.3062367614863766 -3.5618278739895177 -0.09086144613119913
1.1989043929797094 -3.9379310601960644 -0.09788462823253079
1.0774017993716078 -4.217593437781554 -0.10125221476365183
0.9421934733123852 -4.389471250108218 -0.09766415546111115
0.8077562917308214 -4.3999999999999995 -0.08299557942803985
0.6733793251784588 -4.390399827820192 -0.09822510890286426
0.5383559061640051 -4.2194813710719865 -0.10237704202190903
0.41717375892891645 -3.9408354237143888 -0.09956932035884124
0.3103081114775631 -3.5658204525243 -0.09307345217785379
0.21875858172774726 -3.108469605939995 -0.0836891115862273
0.14303807086935943 -2.582358636306529 -0.07220875725245007
0.08321842220983373 -2.0010132753963 -0.059397103145191664
0.04034441190123155 -1.3779417853411635 -0.04646331989786199
0.017451320915622327 -0.7308202223588661 -0.03660772780093159
0.010884627845154086 -0.08425345754318908 -0.03542810250422092
0.0 0.0 0.0
0.018822388779570057 -0.6896411457685048 0.01162519112411348
0.04772123918095932 -1.3189193938304842 0.022203538605716125
0.08862942788610695 -1.92337221565349 0.03203505954538359
0.1450957381434192 -2.4887829074758 0.03962235417593616
0.2176913055904392 -3.002582787343566 0.04494822858049509
0.3061528518546727 -3.4518019468615204 0.047647332728865927
0.4100585216408529 -3.823982954399777 0.04747003842703913
0.528996993515215 -4.106937399015053 0.044533344262692474
0.6624813399755515 -4.287857223035347 0.04008967674483547
0.8071411552749042 -4.351889371319214 0.03751926571213817
0.9518177735611468 -4.288184285830865 0.04011609215839088
1.0853548728757787 -4.107590515736895 0.04460523932233534
1.2043899736144452 -3.824959755685786 0.047629498306088744
1.3084527294550008 -3.453097084253998 0.04796730767871323
1.3971642288369837 -3.004181879161331 0.0455391590498677
1.4701605195280116 -2.490647760939176 0.040651596527187195
1.5272912705859019 -1.9254097406960535 0.03367966279520498
1.569279563538044 -1.320946737683705 0.024945631608157572
1.600312033147445 -0.6915807894824059 0.01478839558110688
1.6242055337438104 0.0 0.01298076124248144
0.27827100845505326 -0.02005116219511252 0.0017134690442702886
0.2895383722141745 -0.6886375380884717 0.005329982444306998
0.30329804848658415 -1.3233718998667605 0.013861990731138495
0.33077434917117116 -1.928945099482905 0.020858500869653098
0.3683654250277369 -2.4964419674514544 0.0262829178491814
0.4167144118399309 -3.0121894787238386 0.029909597305041676
0.4756348603091037 -3.463383290595476 0.03168494532007675
0.5448145836866538 -3.8375234073948636 0.031537431595659166
0.6238191935926354 -4.122485253199183 0.029633018454638286
0.7120489389609213 -4.305460705334373 0.026687991445244124
0.8072142216575066 -4.370773696328726 0.024805366482411054
0.902396020283938 -4.305791337500555 0.026619876925379524
0.9906774535353846 -4.123145747840719 0.029511645917616985
1.0697759745555913 -3.83851200544421 0.03139732024438687
1.139106176929208 -3.4646959678329448 0.03158904153491839
1.1982601319667576 -3.013814753034244 0.029963850092173828
1.2469760010389621 -2.4983473847084974 0.026643670824517674
1.285149986141611 -1.9310475576544408 0.021784333766373832
1.3136262958642557 -1.3255270475459988 0.01558688850519611
1.3291396520417875 -0.6908517989313249 0.008774587718532165
1.3414117299857669 -0.020396855206608725 0.009824046418373216
0.5455022327345724 -0.03530495208446121 -0.003084899018150352
0.5517489212474639 -0.6885026666876831 -0.00024065785282916902
0.5565453528874297 -1.3250239515860582 0.005364077951280516
0.5691323532992131 -1.9323370666165727 0.009923335491436598
0.5879244390121112 -2.5009240957263748 0.013090268350742387
0.6120134854714534 -3.0178544591463456 0.015001956218451075
0.6413981946616945 -3.470196690549759 0.015737874952423788
0.6758098250867579 -3.8454346900131786 0.015365571976856599
0.7147700040928087 -4.131509550193566 0.013971386522287101
0.7583855334355689 -4.316118424693107 0.011618199806926228
0.8072931869577427 -4.383410181633885 0.009540601586554119
0.856216884306928 -4.316454253709362 0.01145683114339495
0.8998822311134869 -4.132180615288548 0.01365982213853552
0.9389314267427198 -3.8464396100805756 0.014931808964719708
0.9734817251642356 -3.471532148463418 0.015238476864124648
1.003074144420383 -3.0195107483582517 0.014539184541216653
1.0274756882365792 -2.5028725869741257 0.012837010494612378
1.0467542800819536 -1.934499974505377 0.010144285179424947
1.0601491541075923 -1.3273003015495717 0.0064499401955954985
1.0657897600429485 -0.6905849326147787 0.0026222328386707227
1.0724101232345038 -0.03562852953098155 0.003041040368441774
0.8072223303567169 -0.04555158082182023 -0.009551310558771852
0.8093397264546507 -0.6889738454375762 -0.006364639667839726
0.8070229187411484 -1.3249511144940758 -0.0031108624932333372
0.8057805691970101 -1.93333504985151 -0.0010408142910297172
0.8055501164924075 -2.5024262297457884 -0.00014298399383304771
0.8054046653284516 -3.0197266511535403 -2.719665430751536e-05
0.8052502849744967 -3.472450251315756 -0.0004310451848000702
0.8049866827941644 -3.847948876305845 -0.0011980603470480974
0.8040281918463607 -4.134247897339509 -0.0022930239247958366
0.8032471768919243 -4.320444600463256 -0.00427682460658301
0.8073750793469983 -4.391494677610917 -0.007097513624353258
0.8115184434298109 -4.320787174761922 -0.004531624688580446
0.8107849244288989 -4.134932516943308 -0.0027950578632528465
0.8099093339166672 -3.8489741961010453 -0.0019254005421892296
0.8097700250354317 -3.473812881308041 -0.0013330766296526845
0.8097917447349012 -3.0214173465218317 -0.001001399150005247
0.8098944151856312 -2.504417034293499 -0.0010030225747853134
0.8100345583593901 -1.9355582695246865 -0.0014812983620724508
0.8092927794572546 -1.3272496101092102 -0.0026475480912709023
0.8073625420560844 -0.690858688191915 -0.004196620341269148
0.8096624483904142 -0.04589188329315094 -0.00480641010816528
1.0671452615726795 -0.05138687446466734 -0.016224770378507163
1.0655162850279614 -0.6893958522870658 -0.012736614658116534
1.056663087380475 -1.3236650079115577 -0.011544402946920527
1.042398717326569 -1.9320790804735344 -0.01195736523257483
1.0232418050028658 -2.500949069935678 -0.013334892698164055
0.9988058241356638 -3.0178538536385533 -0.015031775114656403
0.9690656555547739 -3.47020619383086 -0.016591632359842512
0.9342537844700247 -3.8452231143467337 -0.017754470739850703
0.8937844590556224 -4.130746579203772 -0.018463535075730394
0.8480920793842817 -4.318187809505673 -0.01955672666223047
0.8074586838145893 -4.396357999170117 -0.023399723693221474
0.7668402047476928 -4.318538678794729 -0.01990671036653114
0.7211930767628522 -4.131447718230596 -0.01915982103109158
0.6808006111445308 -3.846272829243094 -0.018781814198909688
0.6460986482818478 -3.471600213793239 -0.017906106569334588
0.6165023788194351 -3.019581224542658 -0.016531980257251444
0.5922486753556637 -2.5029819241572064 -0.01482003928462619
0.5733210503617115 -1.9343433300118051 -0.013076611672730725
0.5592985346774513 -1.3259426116947521 -0.011750391982663248
0.5505860757606968 -0.6911275475887576 -0.01130956573695251
0.5490485989174407 -0.05175680608644849 -0.01264086897003431
1.3278860045730245 -0.05389903930316997 -0.0223480851453614
1.3230924714053287 -0.6893092454905251 -0.018955271188450334
1.3078921544668192 -1.3213092689233947 -0.019869913035377107
1.2809383086856525 -1.9286638199504142 -0.022755322754156877
1.2428972156602665 -2.4964374502944824 -0.02639757418181923
1.1941237740527884 -3.012188148955916 -0.029863293674172352
1.1348132833823465 -3.463356946921765 -0.032518272653785235
1.065173220239921 -3.837331652965886 -0.03390797711759133
0.9863104885973902 -4.121106055347605 -0.03398854058254578
0.8952247136383862 -4.307967113854252 -0.03292963228440633
0.8075427042493794 -4.399243342296715 -0.03700885718326967
0.7198752291362122 -4.308327928750531 -0.03337805500908992
0.6288330221592564 -4.1218268859709575 -0.03488627406366881
0.5500423346559713 -3.8384101317342965 -0.035247952255334
0.48050022591848857 -3.464787017094808 -0.034265923851985826
0.4213066500210047 -3.0139555528884676 -0.03192254729688311
0.3726544870885771 -2.4985094128701832 -0.02855805736307261
0.33471011869750683 -1.9309523431204 -0.024626110251746932
0.3077861136672221 -1.3235591408874048 -0.020840987238453835
0.29254848016508356 -0.6909484178323672 -0.01831061440955845
0.2877644792919887 -0.05428124522910767 -0.019771167173982484
1.5908958336431447 -0.05470145347905868 -0.02704872092291037
1.5844555404762821 -0.6885715113346271 -0.024774879224932267
1.5633026749235712 -1.317836251644948 -0.02813234920808286
1.5232868131500514 -1.9229800984448353 -0.03359565733318719
1.4662473663603075 -2.4887602876480543 -0.039550402096084576
1.39315842348655 -3.0025416282679784 -0.04477028588908398
1.3042656739439973 -3.4517815354508077 -0.0484140956155198
1.1998659731970949 -3.8236655450242805 -0.04990314144839365
1.0811659494514818 -4.106410675021745 -0.048852635571862514
0.9521757645057423 -4.287314850510427 -0.04501770549364809
0.8076238850047137 -4.3999999999999995 -0.043294379229776046
0.6630863240769493 -4.287687395853047 -0.04556905969432775
0.5341387110485705 -4.107154686486799 -0.04996187866111308
0.41550771235233974 -3.8247777242910996 -0.05157381341520838
0.3111983264203784 -3.4532534712846994 -0.05062542750455371
0.22240493079835497 -3.0043541151442255 -0.047439198002137146
0.1493957037660771 -2.4908705992460782 -0.042469717977782886
0.09235520840467239 -1.9252819504412075 -0.03634835014943318
0.05218380390819057 -1.3200547202140755 -0.03003280100666784
0.03077821956306978 -0.690155528335405 -0.024989548492841688
0.024229697156001043 -0.05506705976368933 -0.025273966721340056
0.0 0.0 0.0
0.026130519705181512 -0.6720800794077939 0.005022938596921966
0.054958780617300876 -1.2902169660260752 0.009425811083269123
0.09491579590279575 -1.8857223492434312 0.013600144902035465
0.1497546393166278 -2.4442966581738568 0.016558290614278298
0.21970366766890168 -2.953905015474703 0.018058543093687058
0.3045597299409066 -3.4024469979390712 0.01798233936611997
0.40444986457046106 -3.778298069827151 0.01635592962648149
0.5206589054343723 -4.069487477607797 0.013522475667475404
0.6556619765897275 -4.260874605047826 0.010472195868397711
0.8071816467276575 -4.33049029688307 0.009011140586137965
0.9586817787300984 -4.260797054695768 0.010475007402080195
1.093623261787585 -4.069308536366539 0.013539779241110127
1.2097192419164564 -3.7779710830119178 0.016413109665423798
1.3094272839069667 -3.401905780919465 0.01812155880031638
1.3940024131948432 -2.953073300154063 0.018339718447996495
1.4635263718870393 -2.4431079725771516 0.01705823532541007
1.5177160133504226 -1.8841575826285089 0.014399486644287845
1.5567057940051283 -1.2883380427824969 0.010723773331082051
1.5835689931609618 -0.6698378299400221 0.007219036927564762
1.6040555041482645 0.0 0.007365661639759205
0.27946282229078506 -0.017339621738941983 0.0001816099675333541
0.2910000049319029 -0.6719742559470898 0.002577693990555192
0.3062476045032409 -1.2948496178683186 0.005947714612596089
0.3335741030221912 -1.891603911464923 0.008986783588212569
0.3704327482550877 -2.452291671975778 0.011177749675940913
0.4173653888601697 -2.9639481225440996 0.012292921923667849
0.4742299199116946 -3.414643851531066 0.012315449742533907
0.5410995511417301 -3.792806434886989 0.011324111826381225
0.618594330075345 -4.086702935768963 0.009573269858914804
0.7078523134212602 -4.281252227078649 0.007653442802359148
0.8071705463533244 -4.352922598694939 0.006685084643218707
0.9064645830558221 -4.281167999779635 0.0075972570149704394
0.9956472470872005 -4.086508901050955 0.009469287836307454
1.0730072127982797 -3.7924521266486706 0.011191523560626304
1.1396677073699657 -3.414056526318674 0.012188287168916423
1.1962259846538583 -2.9630408735049496 0.012224886161037837
1.242719063625228 -2.45098207953243 0.01124332730938131
1.2789570049930374 -1.889850056772695 0.009299000590530203
1.3053373491261124 -1.2926586990827889 0.006674612688636289
1.3190016071332362 -0.6692145674489342 0.004580029264595613
1.3298838126722312 -0.016483106107262366 0.005845565846433775
0.5435824311376317 -0.029890965948379106 -0.0017417385218162747