# vtk DataFile Version 3.0
Some data
ASCII
DATASET UNSTRUCTURED_GRID
POINTS 1029 float
0.0 0.0 0.0
0.8 0.0 0.0
1.6 0.0 0.0
2.4000000000000004 0.0 0.0
3.2 0.0 0.0
4.0 0.0 0.0
4.800000000000001 0.0 0.0
5.6000000000000005 0.0 0.0
6.4 0.0 0.0
7.2 0.0 0.0
8.0 0.0 0.0
8.8 0.0 0.0
9.600000000000001 0.0 0.0
10.4 0.0 0.0
11.200000000000001 0.0 0.0
12.0 0.0 0.0
12.8 0.0 0.0
13.600000000000001 0.0 0.0
14.4 0.0 0.0
15.200000000000001 0.0 0.0
16.0 0.0 0.0
0.0 0.3333333333333333 0.0
0.8 0.3333333333333333 0.0
1.6 0.3333333333333333 0.0
2.4000000000000004 0.3333333333333333 0.0
3.2 0.3333333333333333 0.0
4.0 0.3333333333333333 0.0
4.800000000000001 0.3333333333333333 0.0
5.6000000000000005 0.3333333333333333 0.0
6.4 0.3333333333333333 0.0
7.2 0.3333333333333333 0.0
8.0 0.3333333333333333 0.0
8.8 0.3333333333333333 0.0
9.600000000000001 0.3333333333333333 0.0
10.4 0.3333333333333333 0.0
11.200000000000001 0.3333333333333333 0.0
12.0 0.3333333333333333 0.0
12.8 0.3333333333333333 0.0
13.600000000000001 0.3333333333333333 0.0
14.4 0.3333333333333333 0.0
15.200000000000001 0.3333333333333333 0.0
16.0 0.3333333333333333 0.0
0.0 0.6666666666666666 0.0
0.8 0.6666666666666666 0.0
1.6 0.6666666666666666 0.0
2.4000000000000004 0.6666666666666666 0.0
3.2 0.6666666666666666 0.0
4.0 0.6666666666666666 0.0
4.800000000000001 0.6666666666666666 0.0
5.6000000000000005 0.6666666666666666 0.0
6.4 0.6666666666666666 0.0
7.2 0.6666666666666666 0.0
8.0 0.6666666666666666 0.0
8.8 0.6666666666666666 0.0
9.600000000000001 0.6666666666666666 0.0
10.4 0.6666666666666666 0.0
11.200000000000001 0.6666666666666666 0.0
12.0 0.6666666666666666 0.0
12.8 0.6666666666666666 0.0
13.600000000000001 0.6666666666666666 0.0
14.4 0.6666666666666666 0.0
15.200000000000001 0.6666666666666666 0.0
16.0 0.6666666666666666 0.0
0.0 1.0 0.0
0.8 1.0 0.0
1.6 1.0 0.0
2.4000000000000004 1.0 0.0
3.2 1.0 0.0
4.0 1.0 0.0
4.800000000000001 1.0 0.0
5.6000000000000005 1.0 0.0
6.4 1.0 0.0
7.2 1.0 0.0
8.0 1.0 0.0
8.8 1.0 0.0
9.600000000000001 1.0 0.0
10.4 1.0 0.0
11.200000000000001 1.0 0.0
12.0 1.0 0.0
12.8 1.0 0.0
13.600000000000001 1.0 0.0
14.4 1.0 0.0
15.200000000000001 1.0 0.0
16.0 1.0 0.0
0.0 1.3333333333333333 0.0
0.8 1.3333333333333333 0.0
1.6 1.3333333333333333 0.0
2.4000000000000004 1.3333333333333333 0.0
3.2 1.3333333333333333 0.0
4.0 1.3333333333333333 0.0
4.800000000000001 1.3333333333333333 0.0
5.6000000000000005 1.3333333333333333 0.0
6.4 1.3333333333333333 0.0
7.2 1.3333333333333333 0.0
8.0 1.3333333333333333 0.0
8.8 1.3333333333333333 0.0
9.600000000000001 1.3333333333333333 0.0
10.4 1.3333333333333333 0.0
11.200000000000001 1.3333333333333333 0.0
12.0 1.3333333333333333 0.0
12.8 1.3333333333333333 0.0
13.600000000000001 1.3333333333333333 0.0
14.4 1.3333333333333333 0.0
15.200000000000001 1.3333333333333333 0.0
16.0 1.3333333333333333 0.0
0.0 1.6666666666666665 0.0
0.8 1.6666666666666665 0.0
1.6 1.6666666666666665 0.0
2.4000000000000004 1.6666666666666665 0.0
3.2 1.6666666666666665 0.0
4.0 1.6666666666666665 0.0
4.800000000000001 1.6666666666666665 0.0
5.6000000000000005 1.6666666666666665 0.0
6.4 1.6666666666666665 0.0
7.2 1.6666666666666665 0.0
8.0 1.6666666666666665 0.0
8.8 1.6666666666666665 0.0
9.600000000000001 1.6666666666666665 0.0
10.4 1.6666666666666665 0.0
11.200000000000001 1.6666666666666665 0.0
12.0 1.6666666666666665 0.0
12.8 1.6666666666666665 0.0
13.600000000000001 1.6666666666666665 0.0
14.4 1.6666666666666665 0.0
15.200000000000001 1.6666666666666665 0.0
16.0 1.6666666666666665 0.0
0.0 2.0 0.0
0.8 2.0 0.0
1.6 2.0 0.0
2.4000000000000004 2.0 0.0
3.2 2.0 0.0
4.0 2.0 0.0
4.800000000000001 2.0 0.0
5.6000000000000005 2.0 0.0
6.4 2.0 0.0
7.2 2.0 0.0
8.0 2.0 0.0
8.8 2.0 0.0
9.600000000000001 2.0 0.0
10.4 2.0 0.0
11.200000000000001 2.0 0.0
12.0 2.0 0.0
12.8 2.0 0.0
13.600000000000001 2.0 0.0
14.4 2.0 0.0
15.200000000000001 2.0 0.0
16.0 2.0 0.0
0.0 0.0 1.6666666666666667
0.8 0.0 1.6666666666666667
1.6 0.0 1.6666666666666667
2.4000000000000004 0.0 1.6666666666666667
3.2 0.0 1.6666666666666667
4.0 0.0 1.6666666666666667
4.800000000000001 0.0 1.6666666666666667
5.6000000000000005 0.0 1.6666666666666667
6.4 0.0 1.6666666666666667
7.2 0.0 1.6666666666666667
8.0 0.0 1.6666666666666667
8.8 0.0 1.6666666666666667
9.600000000000001 0.0 1.6666666666666667
10.4 0.0 1.6666666666666667
11.200000000000001 0.0 1.6666666666666667
12.0 0.0 1.6666666666666667
12.8 0.0 1.6666666666666667
13.600000000000001 0.0 1.6666666666666667
14.4 0.0 1.6666666666666667
15.200000000000001 0.0 1.6666666666666667
16.0 0.0 1.6666666666666667
0.0 0.3333333333333333 1.6666666666666667
0.8 0.3333333333333333 1.6666666666666667
1.6 0.3333333333333333 1.6666666666666667
2.4000000000000004 0.3333333333333333 1.6666666666666667
3.2 0.3333333333333333 1.6666666666666667
4.0 0.3333333333333333 1.6666666666666667
4.800000000000001 0.3333333333333333 1.6666666666666667
5.6000000000000005 0.3333333333333333 1.6666666666666667
6.4 0.3333333333333333 1.6666666666666667
7.2 0.3333333333333333 1.6666666666666667
8.0 0.3333333333333333 1.6666666666666667
8.8 0.3333333333333333 1.6666666666666667
9.600000000000001 0.3333333333333333 1.6666666666666667
10.4 0.3333333333333333 1.6666666666666667
11.200000000000001 0.3333333333333333 1.6666666666666667
12.0 0.3333333333333333 1.6666666666666667
12.8 0.3333333333333333 1.6666666666666667
13.600000000000001 0.3333333333333333 1.6666666666666667
14.4 0.3333333333333333 1.6666666666666667
15.200000000000001 0.3333333333333333 1.6666666666666667
16.0 0.3333333333333333 1.6666666666666667
0.0 0.6666666666666666 1.6666666666666667
0.8 0.6666666666666666 1.6666666666666667
1.6 0.6666666666666666 1.6666666666666667
2.4000000000000004 0.6666666666666666 1.6666666666666667
3.2 0.6666666666666666 1.6666666666666667
4.0 0.6666666666666666 1.6666666666666667
4.800000000000001 0.6666666666666666 1.6666666666666667
5.6000000000000005 0.6666666666666666 1.6666666666666667
6.4 0.6666666666666666 1.6666666666666667
7.2 0.6666666666666666 1.6666666666666667
8.0 0.6666666666666666 1.6666666666666667
8.8 0.6666666666666666 1.6666666666666667
9.600000000000001 0.6666666666666666 1.6666666666666667
10.4 0.6666666666666666 1.6666666666666667
11.200000000000001 0.6666666666666666 1.6666666666666667
12.0 0.6666666666666666 1.6666666666666667
12.8 0.6666666666666666 1.6666666666666667
13.600000000000001 0.6666666666666666 1.6666666666666667
14.4 0.6666666666666666 1.6666666666666667
15.200000000000001 0.6666666666666666 1.6666666666666667
16.0 0.6666666666666666 1.6666666666666667
0.0 1.0 1.6666666666666667
0.8 1.0 1.6666666666666667
1.6 1.0 1.6666666666666667
2.4000000000000004 1.0 1.6666666666666667
3.2 1.0 1.6666666666666667
4.0 1.0 1.6666666666666667
4.800000000000001 1.0 1.6666666666666667
5.6000000000000005 1.0 1.6666666666666667
6.4 1.0 1.6666666666666667
7.2 1.0 1.6666666666666667
8.0 1.0 1.6666666666666667
8.8 1.0 1.6666666666666667
9.600000000000001 1.0 1.6666666666666667
10.4 1.0 1.6666666666666667
11.200000000000001 1.0 1.6666666666666667
12.0 1.0 1.6666666666666667
12.8 1.0 1.6666666666666667
13.600000000000001 1.0 1.6666666666666667
14.4 1.0 1.6666666666666667
15.200000000000001 1.0 1.6666666666666667
16.0 1.0 1.6666666666666667
0.0 1.3333333333333333 1.6666666666666667
0.8 1.3333333333333333 1.6666666666666667
1.6 1.3333333333333333 1.6666666666666667
2.4000000000000004 1.3333333333333333 1.6666666666666667
3.2 1.3333333333333333 1.6666666666666667
4.0 1.3333333333333333 1.6666666666666667
4.800000000000001 1.3333333333333333 1.6666666666666667
5.6000000000000005 1.3333333333333333 1.6666666666666667
6.4 1.3333333333333333 1.6666666666666667
7.2 1.3333333333333333 1.6666666666666667
8.0 1.3333333333333333 1.6666666666666667
8.8 1.3333333333333333 1.6666666666666667
9.600000000000001 1.3333333333333333 1.6666666666666667
10.4 1.3333333333333333 1.6666666666666667
11.200000000000001 1.3333333333333333 1.6666666666666667
12.0 1.3333333333333333 1.6666666666666667
12.8 1.3333333333333333 1.6666666666666667
13.600000000000001 1.3333333333333333 1.6666666666666667
14.4 1.3333333333333333 1.6666666666666667
15.200000000000001 1.3333333333333333 1.6666666666666667
16.0 1.3333333333333333 1.6666666666666667
0.0 1.6666666666666665 1.6666666666666667
0.8 1.6666666666666665 1.6666666666666667
1.6 1.6666666666666665 1.6666666666666667
2.4000000000000004 1.6666666666666665 1.6666666666666667
3.2 1.6666666666666665 1.6666666666666667
4.0 1.6666666666666665 1.6666666666666667
4.800000000000001 1.6666666666666665 1.6666666666666667
5.6000000000000005 1.6666666666666665 1.6666666666666667
6.4 1.6666666666666665 1.6666666666666667
7.2 1.6666666666666665 1.6666666666666667
8.0 1.6666666666666665 1.6666666666666667
8.8 1.6666666666666665 1.6666666666666667
9.600000000000001 1.6666666666666665 1.6666666666666667
10.4 1.6666666666666665 1.6666666666666667
11.200000000000001 1.6666666666666665 1.6666666666666667
12.0 1.6666666666666665 1.6666666666666667
12.8 1.6666666666666665 1.6666666666666667
13.600000000000001 1.6666666666666665 1.6666666666666667
14.4 1.6666666666666665 1.6666666666666667
15.200000000000001 1.6666666666666665 1.6666666666666667
16.0 1.6666666666666665 1.6666666666666667
0.0 2.0 1.6666666666666667
0.8 2.0 1.6666666666666667
1.6 2.0 1.6666666666666667
2.4000000000000004 2.0 1.6666666666666667
3.2 2.0 1.6666666666666667
4.0 2.0 1.6666666666666667
4.800000000000001 2.0 1.6666666666666667
5.6000000000000005 2.0 1.6666666666666667
6.4 2.0 1.6666666666666667
7.2 2.0 1.6666666666666667
8.0 2.0 1.6666666666666667
8.8 2.0 1.6666666666666667
9.600000000000001 2.0 1.6666666666666667
10.4 2.0 1.6666666666666667
11.200000000000001 2.0 1.6666666666666667
12.0 2.0 1.6666666666666667
12.8 2.0 1.6666666666666667
13.600000000000001 2.0 1.6666666666666667
14.4 2.0 1.6666666666666667
15.200000000000001 2.0 1.6666666666666667
16.0 2.0 1.6666666666666667
0.0 0.0 3.3333333333333335
0.8 0.0 3.3333333333333335
1.6 0.0 3.3333333333333335
2.4000000000000004 0.0 3.3333333333333335
[...]
POINT_DATA 1029
VECTORS Disp float
0.0 0.0 0.0
0.025610095332241276 -0.9286602391900812 0.02222859197963243
0.061670846031674456 -1.7499672325017932 0.04786281488426661
0.11154559991356418 -2.5410893148535996 0.06833305647744949
0.1825204781956394 -3.280577792274901 0.08688202167971569
0.27559092315149436 -3.9509977799078375 0.10221821970677607
0.39037277553090693 -4.5339274034076205 0.11370371925356842
0.5261716928877196 -5.011551953112465 0.12052259024526997
0.6811318366300912 -5.366504968678116 0.1221037104543753
0.8506429790178848 -5.583959361917645 0.11938142939333782
1.0270630366718287 -5.656418136142299 0.11691764645034573
1.2035457935445142 -5.585020347490207 0.11947959631896501
1.373257265861114 -5.368651685501708 0.12233448186182148
1.5285937162877736 -5.014829590583535 0.1209621355592497
1.6650144392409387 -4.5383901044831445 0.11448316733575903
1.7807736329760369 -3.9566806590006376 0.10354799619780485
1.8753313300353858 -3.287447873184302 0.0890603692088067
1.948522667816658 -2.548960811564641 0.07187419344909993
2.001625674051697 -1.7584770181914635 0.05308808604712768
2.0432548133072146 -0.9371234696034236 0.03156125910855963
2.0822296478015416 0.0 -0.00018019925670507628
0.36447592992335853 -0.0396562716770814 -0.011671107564667696
0.3802068392767907 -0.9245378915858662 0.011644661694034872
0.3928888394473337 -1.755558480354633 0.030320377047156462
0.42557118035305314 -2.5476575398148738 0.04614851213654
0.4716788896282167 -3.2900253865522417 0.059395947656302135
0.5325566874109651 -3.962970652208079 0.0702961722889401
0.6078560772551675 -4.548450060612488 0.07837371285270053
0.6970992081282189 -5.028520845412936 0.08325623110222446
0.799068591909637 -5.385598154061437 0.08468764338097712
0.9107972607777987 -5.6042881049292035 0.08325477559432898
1.0272541535028972 -5.676817052749255 0.08173070191745034
1.1437773472297383 -5.605366548604395 0.08322098798373555
1.2557162570632874 -5.387783048863402 0.0846493532959525
1.3580747679821086 -5.031864260799219 0.0832798139485576
1.4479474652025341 -4.553017090472322 0.07857933412627728
1.5242096327661094 -3.9688130900689136 0.07087919158142791
1.586514524669227 -3.2971294299802776 0.06067331972470666
1.6346767941375964 -2.5558651214114794 0.04854305405887164
1.6703349249805435 -1.7645506113721847 0.03466171032436977
1.687260175879677 -0.9336712371568348 0.01799192471294167
1.7052655370375864 -0.0418495404387812 -0.00470692250735515
0.7085615828643277 -0.06885347987237675 -0.019072705104069842
0.7166730961224482 -0.9231544095951115 -0.0010321282785534759
0.7180884244885946 -1.756826304054138 0.01230079072315888
0.7307695888573688 -2.551625447424852 0.022129396017441193
0.7525500196705276 -3.2954441840852633 0.029649643481754907
0.781854250960254 -3.9699881062463773 0.03538945393197
0.8186425519206899 -4.5569853780552325 0.039384100679490344
0.8627320810689647 -5.038580689507329 0.041552050153158035
0.9137980459766519 -5.396973013197192 0.04185187265733923
0.9700794662663217 -5.615927312423211 0.04038676234738638
1.027405689076137 -5.687222469731084 0.03873502625447499
1.0847994858570764 -5.617024626542248 0.04022124196756808
1.1412938751443908 -5.399198533821957 0.04154448148763491
1.1927491745614498 -5.041992293287532 0.04115894674045744
1.2374566379733076 -4.56165718178012 0.03901186723133203
1.2751668021101188 -3.975984813951393 0.03522467523542944
1.305795813199695 -3.302769297628749 0.02999546560911951
1.3294219346168008 -2.560128694299127 0.02346580799283045
1.344569851352892 -1.7662098724215054 0.015301088140302378
1.3480018711644404 -0.9319656353147183 0.004026346149216202
1.3570919813397793 -0.0722320166484378 -0.01198611520050016
1.0425336904064486 -0.08756517461235623 -0.02568312076575512
1.0447134920176824 -0.9233889715484319 -0.01336151722556081
1.0375623528716482 -1.7557726625697838 -0.005907547522122184
1.0322289683691 -2.5524094328398146 -0.002435227849004351
1.0293997800243169 -3.2970725889992796 -0.0009839047588296596
1.0274949983055037 -3.972171934242487 -0.0006560655653689184
1.0262052821124272 -4.559737279391102 -0.0010492465410081762
1.0257276841589176 -5.041995731872145 -0.0019465866143747617
1.0267978611255817 -5.40103152234771 -0.0031466525647850254
1.02896504114449 -5.619032087663487 -0.004885929415170668
1.027540861265503 -5.686582639818961 -0.0069856961475083254
1.0261845417542959 -5.620149117316834 -0.0051841552536831285
1.028564344768504 -5.403299019107866 -0.0037254236680589092
1.0300185244782538 -5.0454765110901985 -0.002760838933315351
1.0301386906475372 -4.564512533080779 -0.002006032789191887
1.0297157556990881 -3.978316927488821 -0.001581644647988105
1.0290091145133806 -3.304600685047472 -0.0015759041704589546
1.027769301547588 -2.5611825415158105 -0.0022040632220657183
1.0241805104720652 -1.7652699039015276 -0.004191013013502938
1.0181062677745003 -0.9318492310374729 -0.00957472841308704
1.0208259208939163 -0.09182093543632149 -0.019708964452297615
1.3737697376666462 -0.09758172382145026 -0.03247604773107509
1.3707112301336644 -0.9237634560954764 -0.0250693772612912
1.355633926983165 -1.7531940364690188 -0.023816205348570867
1.3336330776752148 -2.550226430619814 -0.026861228260980793
1.3063904020195065 -3.2948499662352257 -0.03156270206553366
1.2731612279833664 -3.9695704308882283 -0.036664799997336094
1.2338486776363498 -4.556738217024739 -0.04146589606945303
1.1886918258851293 -5.038755311796663 -0.04546221871003031
1.1394248399702802 -5.397964314801589 -0.04809839476380174
1.0881419144359739 -5.614124765007679 -0.04925391909532795
1.0276796784977176 -5.67332558015063 -0.05113800019440327
0.9672859009352712 -5.615262185501274 -0.04968704506833402
0.9162161396991955 -5.400274838540778 -0.04895344111192013
0.8673292192241683 -5.042305847982854 -0.046706101635136325
0.822751735657733 -4.561615404496934 -0.04302088303705386
0.7842510017582972 -3.9758554307501943 -0.038370906550995426
0.7520880812663259 -3.302565130340893 -0.033122022807623504
0.7261207938775429 -2.5592026618020105 -0.027773880739871522
0.7053064853229815 -1.762711841025498 -0.023374093589359317
0.6908448243823674 -0.9320005698151743 -0.022587605691294168
0.6880810782117462 -0.10239472690772561 -0.027807665400708812
1.707221426528845 -0.10132953174515016 -0.03979265476691848
1.7000323714057424 -0.9233765351174054 -0.036116498651912105
1.677333188461652 -1.7493231218749299 -0.0410190032070773
1.6392421721013222 -2.545290129081807 -0.050481624981287214
1.5874983799707487 -3.288741767853755 -0.061149265690868655
1.5225977861144808 -3.9621213536831723 -0.07144490418808067
1.4447558585131084 -4.548004765666735 -0.08041042004608076
1.3546175061021306 -5.02866034461896 -0.08720755183994525
1.252792454185273 -5.387552189848408 -0.09101418983677993
1.147231582723375 -5.6025946070126365 -0.08971875052809032
1.0278424711971055 -5.6450475060032055 -0.08794119392006138
0.9085241557909878 -5.603753341144746 -0.09029012642343981
0.803182229879394 -5.389907263640298 -0.09215284287016207
0.701742190567652 -5.032282008224997 -0.088893679408653
0.6121775466105451 -4.552983003164397 -0.08258338946726643
0.5351102515303072 -3.968539340870885 -0.07396112397105561
0.4711541569781516 -3.296618025759042 -0.06371896662896694
0.420385318021706 -2.55441312129212 -0.05258863666236715
0.3830143869112634 -1.7588520603804265 -0.041883075112405195
0.3605695262391437 -0.9315034307441157 -0.03492983020596151
0.35345488064216257 -0.10641059935262392 -0.03638691354550125
2.0456331559100724 -0.10209383057170893 -0.047381706585468183
2.0374868926840506 -0.9220778029840385 -0.04652457733169526
2.0086489941396954 -1.7442341148728127 -0.056928626712956384
1.95387217510706 -2.53753112599442 -0.07224059524522124
1.8770154749142665 -3.27862770883534 -0.08827380328285284
1.7797736467572565 -3.9496879271432204 -0.10315157265512082
1.6624831509826583 -4.5332354759867926 -0.11564184053071348
1.5258783183377977 -5.011912258431504 -0.12458043593243949
1.3712386537456625 -5.367846193540301 -0.12886645515387787
1.1991553296702886 -5.586599772865122 -0.12429983422337021
1.0280534622028794 -5.6000000000000005 -0.10563073745399267
0.8570282320453493 -5.587781599044078 -0.12501377496745314
0.6851802442087582 -5.370249017728242 -0.13029805348263476
0.5309484204549936 -5.015608721091366 -0.12672458954785942
0.39493759642597637 -4.538316939576755 -0.11845712095390265
0.27842001310799724 -3.9562340439240296 -0.1065134147464074
0.18204845383365453 -3.2866382643904837 -0.09190205468524376
0.10591435553968317 -2.546744168686507 -0.0755963130941973
0.05134743332871606 -1.7537440904344346 -0.05913513441578367
0.022210772074294605 -0.9301348284568772 -0.0465916535651551
0.013853162711877543 -0.10723167323683919 -0.04509031227844963
0.0 0.0 0.0
0.02395576753763135 -0.8777250946145001 0.014795697794315417
0.06073612259394753 -1.6786246830570493 0.028259049134526936
0.11280109003686814 -2.4479282744681674 0.04077189396682104
0.18466730309163631 -3.167541882242018 0.050428450769336206
0.27706166166057594 -3.8214690020737256 0.05720683637513127
0.389649084178698 -4.393202477823841 0.060642059836690784
0.5218926639065624 -4.866887396508891 0.06041641254344682
0.6732689008375626 -5.227011235110144 0.056678801788812336
0.8431580690597846 -5.457272829317764 0.05102322494788609
1.027270561258927 -5.538768290770022 0.04775179272443555
1.2114044390777736 -5.457689091057612 0.051056844565106035
1.3813607472963916 -5.227842474574433 0.05677030459192829
1.5328599664183447 -4.8681305981457985 0.06061936148032379
1.6653034738518069 -4.394850834505375 0.061049300681829864
1.7782090185198047 -3.8235042098419587 0.057958929699639394
1.8711133884902256 -3.169915332104684 0.05173839557984542
1.9438252534730225 -2.4505214881588526 0.04286502537547826
1.9972648990485007 -1.681204938870357 0.03174898568284522
2.036760769460481 -0.8801937320686268 0.01882159437566238
2.067170679310418 0.0 0.016520968853756778
0.35416310167007536 -0.02551966097560343 0.0021807787836154724
0.36850338281804934 -0.8764477757490042 0.006783614020016052
0.38601569807384406 -1.6842915089213997 0.01764253365779117
0.4209855353087735 -2.455021035705605 0.026547182924981115
0.4688287227625871 -3.1772897767564916 0.03345098635346341
0.5303637968872019 -3.833695700194073 0.0380667602063679
0.605353458575244 -4.407942369848875 0.04032629404367646
0.6934003792375802 -4.884120700320817 0.04013854930349807
0.7939517009360924 -5.246799413162664 0.03771475076036713
0.9062441041320811 -5.479677261334717 0.03396653456657489
1.027363554836806 -5.562802886236663 0.031570466432042
1.148504025815888 -5.480098065909949 0.03387984335944215
1.260862213590458 -5.24764004270659 0.03756027662227349
1.3615330585252747 -4.88537891602016 0.03996022576541794
1.449771497909893 -4.409613049969486 0.04020423468062129
1.5250583497758807 -3.8357642311347675 0.03813580920801646
1.587060364958701 -3.179714853265638 0.03391012650370639
1.6356454369075457 -2.4576968915604436 0.02772551570240815
1.6718880129181992 -1.6870344241496396 0.01983785809724945
1.6916322844168832 -0.8792659259127044 0.0111676570960165
1.7072512927092243 -0.025959633899333277 0.012503331804888879
0.6942755689349283 -0.04493357538023446 -0.003926235114011709
0.7022258997695179 -0.8762761212389063 -0.00030629181270317384
0.7083304491294723 -1.6863941202005068 0.0068270083016071965
0.7243502678353786 -2.4593380847848114 0.012629699716340093
0.7482674678336115 -3.1829943036518453 0.01666034153726463
0.7789262542364129 -3.8409056752772694 0.01909339882342795
0.8163249750239947 -4.416613969790698 0.020030022666654657
0.8601215955649856 -4.894189605471394 0.019556182515920763
0.9097072779363142 -5.258284882064603 0.01778176466463663
0.9652179516452764 -5.49324163142764 0.01478679975416083
1.0274640561280277 -5.578885685715949 0.012142583837300788
1.08973058002698 -5.493669050175701 0.01458142145508476
1.145304657780788 -5.25913896491291 0.017385228176156075
1.1950036340361805 -4.89546859464826 0.019004120500373305
1.2389767411181158 -4.4183136434991885 0.019394425099596435
1.276639820171401 -3.8430136797289602 0.018504416688602563
1.3076963304829323 -3.185474201603715 0.016338013356539206
1.332232720104326 -2.4620908766434533 0.01291090840991706
1.349280741591509 -1.6892912928814559 0.008209014794112878
1.3564596946001444 -0.8789262778734653 0.0033373872489141053
1.3648856113894012 -0.045345401221271425 0.0038704150140605616
1.0273738749994834 -0.057974739227784775 -0.012156213438439237
1.0300687427604893 -0.8768758032842253 -0.008100450486353905
1.0271200783978471 -1.6863014184470722 -0.003959279536865548
1.0255389062507632 -2.460608245265643 -0.0013246727340738055
1.0252456028085388 -3.1849061105856475 -0.00018197962856230393
1.0250604831453225 -3.843288465104611 -3.4613923725134315e-05
1.0248639990584683 -4.419482138038331 -0.0005486029625481158
1.0245285053744098 -4.897389478934775 -0.00152480407815003
1.0233086078044737 -5.261770051159435 -0.0029183940862063246
1.022314588771554 -5.498747673316922 -0.005443231317588866
1.027568282805276 -5.589175044232138 -0.00903319915840843
1.0328416552743018 -5.49918367696988 -0.005767522331076408
1.0319080856367813 -5.262641385200793 -0.003557346371586164
1.0307936977121273 -4.898694431401585 -0.0024505097811607706
1.030616395499642 -4.421216394392345 -0.0016966429834070708
1.0306440387535136 -3.84544025920988 -0.0012745080093308906
1.030774710236263 -3.1874398618283792 -0.0012765741863436605
1.0309530742755901 -2.463437797577115 -0.0018852888247270676
1.0300089920365065 -1.6892267765028157 -0.0033696066619078755
1.0275523262531983 -0.8792746940625469 -0.00534115316192513
1.0304794797696208 -0.05840785146403885 -0.006117249228901645
1.35818487836526 -0.06540147659140927 -0.02064970775446577
1.3561116354901663 -0.8774129029108488 -0.016210236837615827
1.3448439293933623 -1.684664555523865 -0.01469287647792311
1.326689276597478 -2.4590097387845833 -0.015218464841495742
1.3023077518218522 -3.183026089009137 -0.016971681615896846
1.2712074125363184 -3.840904904630992 -0.019131350145994017
1.2333562888879102 -4.416626064875735 -0.0211166230035197
1.1890502711436817 -4.893920327350461 -0.022596599123544003
1.1375438569799003 -5.257313828077592 -0.023499044641952214
1.0793899192163805 -5.495875393916362 -0.024890379388422885
1.027674688491316 -5.595364726216555 -0.029781466518792595
0.9759784424061656 -5.496321954829811 -0.02533581319393327
0.9178820976981936 -5.258206186839153 -0.024385226767029162
0.8664735050930542 -4.89525632812783 -0.023904127162456077
0.8223073705405428 -4.418400272100771 -0.022789590179382032
0.7846393912247375 -3.843103376690933 -0.02104070214584129
0.7537710413617458 -3.185613358018552 -0.018861868180699487
0.7296813368239797 -2.4618915109243553 -0.016642960311030557
0.7118344986803694 -1.6875633239753225 -0.014955044341870805
0.7007459146044964 -0.8796168787494398 -0.01439399275643832
0.6987891258948978 -0.06587229865551121 -0.016088378689470238
1.6900367330929817 -0.06859877729495871 -0.028443017457734553
1.6839358726977325 -0.8773026760788885 -0.024124890603495385
1.6645900147759911 -1.6816663422662042 -0.025288980226868533
1.6302851201454052 -2.454663043573339 -0.028961319868965243
1.581869183567641 -3.177284027647619 -0.0335969125950979
1.5197938942490234 -3.8336940077621704 -0.038007828312657435
1.444307815213909 -4.407908841536896 -0.04138689246854514
1.355675007578094 -4.883876649229381 -0.04315560724068076
1.2553042582148728 -5.245044070442464 -0.043258142559730026
1.1393769082670642 -5.4828672358145605 -0.0419104410893825
1.0277816235901527 -5.599036981104935 -0.04710218186977177
0.9162048370824832 -5.483326454773557 -0.04248116092083439
0.8003329372936372 -5.245961491235991 -0.044400712444867506
0.7000538804712642 -4.885249258571172 -0.04486103014337556
0.61154574207809 -4.40972893084823 -0.04361117581186297
0.5362084636630955 -3.835943430949239 -0.040628696559932995
0.47428752902180804 -3.1799210709259693 -0.036346618462372464
0.42599469652406324 -2.457575709426203 -0.03134232213888163
0.3917277810309613 -1.6845298156750659 -0.02652489284924968
0.3723344293009605 -0.8793888954231244 -0.023304418339761768
0.36624570091701886 -0.06908522120071542 -0.02516330367632045
2.024776515545873 -0.06962003170063442 -0.03442564481097859
2.0165797787880435 -0.8763637416986564 -0.0315316644681083
1.9896579499027727 -1.6772461384572679 -0.035804808083040505
1.9387286712819278 -2.4474292162025963 -0.04275810933318754
1.8661330117313306 -3.1675130933703506 -0.05033687539507427
1.7731107208010843 -3.821416617795704 -0.05698036385891454
1.6599744941105503 -4.393176499664771 -0.06161793987439845
1.5271021477054014 -4.866483420940059 -0.06351308911626058
1.3760293902109892 -5.226340859118651 -0.06217608163705582
1.2118600639164165 -5.456582537013326 -0.057295261537518974
1.027884944551502 -5.6000000000000005 -0.05510193720169336
0.8439280488252807 -5.45705668563129 -0.05799698506569087
0.6798129049709676 -5.227287782801608 -0.06358784556890063
0.5288279975393814 -4.8678989218252875 -0.06563939889232134
0.3960705972623199 -4.39504987254445 -0.06443236227878461
0.28306082101608443 -3.8237234192747462 -0.06037716109390595
0.19013998661134404 -3.170198944495283 -0.054052368335653744
0.11754299251498315 -2.4503588460163184 -0.04626153655413022
0.06641575042853218 -1.6800696439090088 -0.038223564917895275
0.03917227944382012 -0.8783797633360807 -0.0318048799003097
0.03083779638027626 -0.07008534879018294 -0.03216686673659877
0.0 0.0 0.0
0.033257025079335485 -0.8553746465190485 0.006392830941527815
0.06994753896749631 -1.6420943203968772 0.011996486833232282
0.12080192205813746 -2.4000102626735322 0.0173092753298344
0.19059681367575204 -3.1109230194940745 0.021074188054498372
0.27962284976047663 -3.759515474240606 0.022983600301013273
0.3876214744703087 -4.3303870882861375 0.022886613738647518
0.5147543730897348 -4.80874299796184 0.02081663770637145
0.6626567887347002 -5.179347698773561 0.01721042357671161
0.8344788792960395 -5.4229313155154175 0.013328249286952067
1.027322095835204 -5.5115331051239425 0.011468724382243419
1.2201404456564828 -5.422832615067421 0.01333182760252046
1.3918841513660098 -5.179119955375728 0.017232446306734588
1.539642671530041 -4.808326832924443 0.02088941230130264
1.6665438158816035 -4.329698266624972 0.023063802109326795
1.774184889520747 -3.7584569274690542 0.02334145984271354
1.8626699278562961 -3.109410146916589 0.021710481323032486
1.9316385624460728 -2.398018741527384 0.01832661936521624
1.981261919642985 -1.6397029635415026 0.013648438784746949
2.0154514458413373 -0.8525208744692038 0.009187865180245934
2.041525187097913 0.0 0.009374478450293945
0.35567995564283644 -0.022068609485931444 0.00023113995867738604
0.3703636426406273 -0.8552399621145146 0.0032807014425148473
0.38976967845870003 -1.6479904227415543 0.007569818597828724
0.42454885839191725 -2.407495887319067 0.011437724566784541
0.4714598614156113 -3.12109849160561 0.01422622686024685
0.5311923130948115 -3.7722976105107477 0.015645536993708718
0.6035653526149373 -4.345910356494122 0.015674208763163253
0.6886721559986151 -4.827208189856188 0.014412505960775254
0.7873018746413893 -5.20125828188777 0.012184161638528326
0.9009029443543601 -5.4488664708273715 0.009740745384714021
1.0273079680860677 -5.540083307429953 0.00850828954579002
1.1536821966165143 -5.44875927244688 0.009669236200735013
1.2671874053837253 -5.201011328610429 0.012051820882423845
1.3656455435614625 -4.826757252098487 0.014243757258813652
1.4504861730163416 -4.345162851678522 0.015512365487527248
1.5224694350140384 -3.7711429299156425 0.015558946022933643
1.581642444613979 -3.1194317375869467 0.014309689302620884
1.6277634609002947 -2.405263708619989 0.011835091660423977
1.661338444342401 -1.6452019806509657 0.008494961603443854
1.6787293181696545 -0.8517276312987283 0.005829128154643497
1.6925793979465638 -0.02097849868197787 0.007439811076967532
0.6918321850842903 -0.0380430475706728 -0.002216758118677457
0.6993837477080865 -0.8548771216062879 -0.00012791830865676096
0.7064945408291528 -1.6506903033916345 0.0028050658083408463