# vtk DataFile Version 3.0
Some data
ASCII
DATASET UNSTRUCTURED_GRID
POINTS 1029 float
0.0 0.0 0.0
0.8 0.0 0.0
1.6 0.0 0.0
2.4000000000000004 0.0 0.0
3.2 0.0 0.0
4.0 0.0 0.0
4.800000000000001 0.0 0.0
5.6000000000000005 0.0 0.0
6.4 0.0 0.0
7.2 0.0 0.0
8.0 0.0 0.0
8.8 0.0 0.0
9.600000000000001 0.0 0.0
10.4 0.0 0.0
11.200000000000001 0.0 0.0
12.0 0.0 0.0
12.8 0.0 0.0
13.600000000000001 0.0 0.0
14.4 0.0 0.0
15.200000000000001 0.0 0.0
16.0 0.0 0.0
0.0 0.3333333333333333 0.0
0.8 0.3333333333333333 0.0
1.6 0.3333333333333333 0.0
2.4000000000000004 0.3333333333333333 0.0
3.2 0.3333333333333333 0.0
4.0 0.3333333333333333 0.0
4.800000000000001 0.3333333333333333 0.0
5.6000000000000005 0.3333333333333333 0.0
6.4 0.3333333333333333 0.0
7.2 0.3333333333333333 0.0
8.0 0.3333333333333333 0.0
8.8 0.3333333333333333 0.0
9.600000000000001 0.3333333333333333 0.0
10.4 0.3333333333333333 0.0
11.200000000000001 0.3333333333333333 0.0
12.0 0.3333333333333333 0.0
12.8 0.3333333333333333 0.0
13.600000000000001 0.3333333333333333 0.0
14.4 0.3333333333333333 0.0
15.200000000000001 0.3333333333333333 0.0
16.0 0.3333333333333333 0.0
0.0 0.6666666666666666 0.0
0.8 0.6666666666666666 0.0
1.6 0.6666666666666666 0.0
2.4000000000000004 0.6666666666666666 0.0
3.2 0.6666666666666666 0.0
4.0 0.6666666666666666 0.0
4.800000000000001 0.6666666666666666 0.0
5.6000000000000005 0.6666666666666666 0.0
6.4 0.6666666666666666 0.0
7.2 0.6666666666666666 0.0
8.0 0.6666666666666666 0.0
8.8 0.6666666666666666 0.0
9.600000000000001 0.6666666666666666 0.0
10.4 0.6666666666666666 0.0
11.200000000000001 0.6666666666666666 0.0
12.0 0.6666666666666666 0.0
12.8 0.6666666666666666 0.0
13.600000000000001 0.6666666666666666 0.0
14.4 0.6666666666666666 0.0
15.200000000000001 0.6666666666666666 0.0
16.0 0.6666666666666666 0.0
0.0 1.0 0.0
0.8 1.0 0.0
1.6 1.0 0.0
2.4000000000000004 1.0 0.0
3.2 1.0 0.0
4.0 1.0 0.0
4.800000000000001 1.0 0.0
5.6000000000000005 1.0 0.0
6.4 1.0 0.0
7.2 1.0 0.0
8.0 1.0 0.0
8.8 1.0 0.0
9.600000000000001 1.0 0.0
10.4 1.0 0.0
11.200000000000001 1.0 0.0
12.0 1.0 0.0
12.8 1.0 0.0
13.600000000000001 1.0 0.0
14.4 1.0 0.0
15.200000000000001 1.0 0.0
16.0 1.0 0.0
0.0 1.3333333333333333 0.0
0.8 1.3333333333333333 0.0
1.6 1.3333333333333333 0.0
2.4000000000000004 1.3333333333333333 0.0
3.2 1.3333333333333333 0.0
4.0 1.3333333333333333 0.0
4.800000000000001 1.3333333333333333 0.0
5.6000000000000005 1.3333333333333333 0.0
6.4 1.3333333333333333 0.0
7.2 1.3333333333333333 0.0
8.0 1.3333333333333333 0.0
8.8 1.3333333333333333 0.0
9.600000000000001 1.3333333333333333 0.0
10.4 1.3333333333333333 0.0
11.200000000000001 1.3333333333333333 0.0
12.0 1.3333333333333333 0.0
12.8 1.3333333333333333 0.0
13.600000000000001 1.3333333333333333 0.0
14.4 1.3333333333333333 0.0
15.200000000000001 1.3333333333333333 0.0
16.0 1.3333333333333333 0.0
0.0 1.6666666666666665 0.0
0.8 1.6666666666666665 0.0
1.6 1.6666666666666665 0.0
2.4000000000000004 1.6666666666666665 0.0
3.2 1.6666666666666665 0.0
4.0 1.6666666666666665 0.0
4.800000000000001 1.6666666666666665 0.0
5.6000000000000005 1.6666666666666665 0.0
6.4 1.6666666666666665 0.0
7.2 1.6666666666666665 0.0
8.0 1.6666666666666665 0.0
8.8 1.6666666666666665 0.0
9.600000000000001 1.6666666666666665 0.0
10.4 1.6666666666666665 0.0
11.200000000000001 1.6666666666666665 0.0
12.0 1.6666666666666665 0.0
12.8 1.6666666666666665 0.0
13.600000000000001 1.6666666666666665 0.0
14.4 1.6666666666666665 0.0
15.200000000000001 1.6666666666666665 0.0
16.0 1.6666666666666665 0.0
0.0 2.0 0.0
0.8 2.0 0.0
1.6 2.0 0.0
2.4000000000000004 2.0 0.0
3.2 2.0 0.0
4.0 2.0 0.0
4.800000000000001 2.0 0.0
5.6000000000000005 2.0 0.0
6.4 2.0 0.0
7.2 2.0 0.0
8.0 2.0 0.0
8.8 2.0 0.0
9.600000000000001 2.0 0.0
10.4 2.0 0.0
11.200000000000001 2.0 0.0
12.0 2.0 0.0
12.8 2.0 0.0
13.600000000000001 2.0 0.0
14.4 2.0 0.0
15.200000000000001 2.0 0.0
16.0 2.0 0.0
0.0 0.0 1.6666666666666667
0.8 0.0 1.6666666666666667
1.6 0.0 1.6666666666666667
2.4000000000000004 0.0 1.6666666666666667
3.2 0.0 1.6666666666666667
4.0 0.0 1.6666666666666667
4.800000000000001 0.0 1.6666666666666667
5.6000000000000005 0.0 1.6666666666666667
6.4 0.0 1.6666666666666667
7.2 0.0 1.6666666666666667
8.0 0.0 1.6666666666666667
8.8 0.0 1.6666666666666667
9.600000000000001 0.0 1.6666666666666667
10.4 0.0 1.6666666666666667
11.200000000000001 0.0 1.6666666666666667
12.0 0.0 1.6666666666666667
12.8 0.0 1.6666666666666667
13.600000000000001 0.0 1.6666666666666667
14.4 0.0 1.6666666666666667
15.200000000000001 0.0 1.6666666666666667
16.0 0.0 1.6666666666666667
0.0 0.3333333333333333 1.6666666666666667
0.8 0.3333333333333333 1.6666666666666667
1.6 0.3333333333333333 1.6666666666666667
2.4000000000000004 0.3333333333333333 1.6666666666666667
3.2 0.3333333333333333 1.6666666666666667
4.0 0.3333333333333333 1.6666666666666667
4.800000000000001 0.3333333333333333 1.6666666666666667
5.6000000000000005 0.3333333333333333 1.6666666666666667
6.4 0.3333333333333333 1.6666666666666667
7.2 0.3333333333333333 1.6666666666666667
8.0 0.3333333333333333 1.6666666666666667
8.8 0.3333333333333333 1.6666666666666667
9.600000000000001 0.3333333333333333 1.6666666666666667
10.4 0.3333333333333333 1.6666666666666667
11.200000000000001 0.3333333333333333 1.6666666666666667
12.0 0.3333333333333333 1.6666666666666667
12.8 0.3333333333333333 1.6666666666666667
13.600000000000001 0.3333333333333333 1.6666666666666667
14.4 0.3333333333333333 1.6666666666666667
15.200000000000001 0.3333333333333333 1.6666666666666667
16.0 0.3333333333333333 1.6666666666666667
0.0 0.6666666666666666 1.6666666666666667
0.8 0.6666666666666666 1.6666666666666667
1.6 0.6666666666666666 1.6666666666666667
2.4000000000000004 0.6666666666666666 1.6666666666666667
3.2 0.6666666666666666 1.6666666666666667
4.0 0.6666666666666666 1.6666666666666667
4.800000000000001 0.6666666666666666 1.6666666666666667
5.6000000000000005 0.6666666666666666 1.6666666666666667
6.4 0.6666666666666666 1.6666666666666667
7.2 0.6666666666666666 1.6666666666666667
8.0 0.6666666666666666 1.6666666666666667
8.8 0.6666666666666666 1.6666666666666667
9.600000000000001 0.6666666666666666 1.6666666666666667
10.4 0.6666666666666666 1.6666666666666667
11.200000000000001 0.6666666666666666 1.6666666666666667
12.0 0.6666666666666666 1.6666666666666667
12.8 0.6666666666666666 1.6666666666666667
13.600000000000001 0.6666666666666666 1.6666666666666667
14.4 0.6666666666666666 1.6666666666666667
15.200000000000001 0.6666666666666666 1.6666666666666667
16.0 0.6666666666666666 1.6666666666666667
0.0 1.0 1.6666666666666667
0.8 1.0 1.6666666666666667
1.6 1.0 1.6666666666666667
2.4000000000000004 1.0 1.6666666666666667
3.2 1.0 1.6666666666666667
4.0 1.0 1.6666666666666667
4.800000000000001 1.0 1.6666666666666667
5.6000000000000005 1.0 1.6666666666666667
6.4 1.0 1.6666666666666667
7.2 1.0 1.6666666666666667
8.0 1.0 1.6666666666666667
8.8 1.0 1.6666666666666667
9.600000000000001 1.0 1.6666666666666667
10.4 1.0 1.6666666666666667
11.200000000000001 1.0 1.6666666666666667
12.0 1.0 1.6666666666666667
12.8 1.0 1.6666666666666667
13.600000000000001 1.0 1.6666666666666667
14.4 1.0 1.6666666666666667
15.200000000000001 1.0 1.6666666666666667
16.0 1.0 1.6666666666666667
0.0 1.3333333333333333 1.6666666666666667
0.8 1.3333333333333333 1.6666666666666667
1.6 1.3333333333333333 1.6666666666666667
2.4000000000000004 1.3333333333333333 1.6666666666666667
3.2 1.3333333333333333 1.6666666666666667
4.0 1.3333333333333333 1.6666666666666667
4.800000000000001 1.3333333333333333 1.6666666666666667
5.6000000000000005 1.3333333333333333 1.6666666666666667
6.4 1.3333333333333333 1.6666666666666667
7.2 1.3333333333333333 1.6666666666666667
8.0 1.3333333333333333 1.6666666666666667
8.8 1.3333333333333333 1.6666666666666667
9.600000000000001 1.3333333333333333 1.6666666666666667
10.4 1.3333333333333333 1.6666666666666667
11.200000000000001 1.3333333333333333 1.6666666666666667
12.0 1.3333333333333333 1.6666666666666667
12.8 1.3333333333333333 1.6666666666666667
13.600000000000001 1.3333333333333333 1.6666666666666667
14.4 1.3333333333333333 1.6666666666666667
15.200000000000001 1.3333333333333333 1.6666666666666667
16.0 1.3333333333333333 1.6666666666666667
0.0 1.6666666666666665 1.6666666666666667
0.8 1.6666666666666665 1.6666666666666667
1.6 1.6666666666666665 1.6666666666666667
2.4000000000000004 1.6666666666666665 1.6666666666666667
3.2 1.6666666666666665 1.6666666666666667
4.0 1.6666666666666665 1.6666666666666667
4.800000000000001 1.6666666666666665 1.6666666666666667
5.6000000000000005 1.6666666666666665 1.6666666666666667
6.4 1.6666666666666665 1.6666666666666667
7.2 1.6666666666666665 1.6666666666666667
8.0 1.6666666666666665 1.6666666666666667
8.8 1.6666666666666665 1.6666666666666667
9.600000000000001 1.6666666666666665 1.6666666666666667
10.4 1.6666666666666665 1.6666666666666667
11.200000000000001 1.6666666666666665 1.6666666666666667
12.0 1.6666666666666665 1.6666666666666667
12.8 1.6666666666666665 1.6666666666666667
13.600000000000001 1.6666666666666665 1.6666666666666667
14.4 1.6666666666666665 1.6666666666666667
15.200000000000001 1.6666666666666665 1.6666666666666667
16.0 1.6666666666666665 1.6666666666666667
0.0 2.0 1.6666666666666667
0.8 2.0 1.6666666666666667
1.6 2.0 1.6666666666666667
2.4000000000000004 2.0 1.6666666666666667
3.2 2.0 1.6666666666666667
4.0 2.0 1.6666666666666667
4.800000000000001 2.0 1.6666666666666667
5.6000000000000005 2.0 1.6666666666666667
6.4 2.0 1.6666666666666667
7.2 2.0 1.6666666666666667
8.0 2.0 1.6666666666666667
8.8 2.0 1.6666666666666667
9.600000000000001 2.0 1.6666666666666667
10.4 2.0 1.6666666666666667
11.200000000000001 2.0 1.6666666666666667
12.0 2.0 1.6666666666666667
12.8 2.0 1.6666666666666667
13.600000000000001 2.0 1.6666666666666667
14.4 2.0 1.6666666666666667
15.200000000000001 2.0 1.6666666666666667
16.0 2.0 1.6666666666666667
0.0 0.0 3.3333333333333335
0.8 0.0 3.3333333333333335
1.6 0.0 3.3333333333333335
2.4000000000000004 0.0 3.3333333333333335
[...]
POINT_DATA 1029
VECTORS Disp float
0.0 0.0 0.0
0.031097972903411146 -1.1276588618737144 0.02699186168953253
0.07488602732415037 -2.12496021089511 0.05811913235943424
0.13544822846644286 -3.0856084537508948 0.08297585429400164
0.22163200923752935 -3.9835587477625194 0.10549959775389305
0.3346461209696442 -4.79764016131683 0.12412212392960878
0.47402408457322864 -5.505483275566608 0.13806880195070884
0.6389227699350846 -6.085455943065323 0.14634885958347765
0.8270886587651012 -6.516470319109309 0.14826879126593512
1.0329236173788194 -6.780522082328735 0.14496316426323175
1.2471479731014232 -6.8685077367444 0.14197142783242694
1.461448463589648 -6.781810421952651 0.14508236695859095
1.6675266799740835 -6.519077046680992 0.14854901368918327
1.8561495126350478 -6.08943593142327 0.1468825931789032
2.021803247649631 -5.510902269729993 0.13901527462178975
2.1623679828994278 -4.804540800215557 0.12573685252569541
2.2771880436144007 -3.991900988867113 0.10814473403902135
2.366063239491692 -3.095166699757457 0.08727580633076945
2.430545461348548 -2.1352935220899214 0.06446410448547636
2.4810951304445594 -1.1379356416614805 0.03832438606003349
2.5284217151876955 0.0 -0.00021881338354350693
0.44257791490692755 -0.048154044179321315 -0.014172059185675124
0.46167973340752216 -1.1226531540685936 0.014139946342738553
0.4770793050431752 -2.1317495832878457 0.03681760070008747
0.5167650047144058 -3.0935841554895904 0.056037479022900016
0.5727529374056739 -3.995030826527862 0.07212365072545718
0.6466759775704415 -4.8121786491099785 0.0853596377793677
0.73811095095269 -5.523117930743942 0.09516807989249515
0.8464776098699677 -6.10606102657305 0.1010968520526182
0.970297575890258 -6.5396549013604846 0.10283499553393939
1.1059681023730092 -6.80520698455703 0.10109508465013718
1.2473800435391662 -6.8932778497671325 0.09924442375676487
1.3888724930645935 -6.806516523305592 0.10105405683722847
1.5247983121481834 -6.5423079879058985 0.10278850043061222
1.6490907896924785 -6.110120888113741 0.101125488365902
1.7582219220315802 -5.528663609859709 0.09541776286739938
1.8508259826445155 -4.819273037941328 0.08606758977720685
1.9264819228126178 -4.003657164976515 0.07367474537973248
1.9849646785956567 -3.103550504571475 0.05894513707118705
2.028263837476399 -2.142668599523655 0.04208921967925851
2.0488159278539224 -1.1337436451191913 0.02184733715105965
2.0706795806885427 -0.05081729910426099 -0.005715548759336317
0.8603962077638244 -0.08360779698789944 -0.023159713340662833
0.8702459024343979 -1.1209732116512494 -0.001253298623975131
0.871964515450431 -2.133289083494387 0.014936674449518772
0.8873630721839416 -3.0984023290159888 0.02687140944970654
0.9138107381713461 -4.00161079496081 0.03600313851350229
0.9493944475945844 -4.82069984329935 0.04297290834589262
0.9940659559036832 -5.533482244781545 0.047823550825009366
1.047603241298011 -6.118276551544798 0.0504560609001641
1.1096119129716313 -6.553467230311038 0.05082013108379781
1.1779536376090831 -6.819340307942616 0.04904106856455183
1.2475640510209764 -6.905912998959316 0.047035389023146794
1.3172565185406653 -6.820672760801566 0.048840079531873505
1.3858568483895468 -6.556169648212721 0.05044687037763913
1.4483382833959815 -6.122419213278128 0.04997872104176258
1.502625917538961 -5.539155149304896 0.04737155306637201
1.5484168311336721 -4.827981559798631 0.04277281992846796
1.5856092017424557 -4.010505575692516 0.036423065382209185
1.6142980634632342 -3.108727700220767 0.02849419541954582
1.6326919623570688 -2.144683416512125 0.018579892741447522
1.6368594149853815 -1.13167255716805 0.0048891346093832624
1.6478974059125808 -0.08771030593029192 -0.014554568458161362
1.2659337669221224 -0.10632914060073459 -0.031186646644136097
1.268580668878618 -1.121258036880284 -0.01622469948819875
1.2598971427727204 -2.1320096616919573 -0.007173450562608442
1.253420890162478 -3.099354311305588 -0.0029570623881220387
1.2499854471723846 -4.003588143784972 -0.001194741492926514
1.2476724979423943 -4.82335163443747 -0.0007966510437393652
1.2461064139936509 -5.536823839260801 -0.0012740850856092245
1.2455264736215264 -6.122423388702074 -0.0023637123175677703
1.246825974223908 -6.5583954199938095 -0.003820935257366272
1.249457549961157 -6.823110392162958 -0.005932914289987853
1.2477281886795097 -6.905136062637433 -0.008482631036411711
1.2460812292730212 -6.824466785313558 -0.006295045665371993
1.2489709900759849 -6.5611488089170384 -0.004523728740004222
1.2507367797235425 -6.126650049181369 -0.003352447276412018
1.2508826957862502 -5.542622361598557 -0.002435896958575134
1.2503691319202737 -4.830813411951213 -0.001920568501421257
1.2495110676233427 -4.012729403272392 -0.0019135979215875228
1.2480055804505954 -3.110007371841027 -0.0026763624842767687
1.2436477627160292 -2.143542026166436 -0.00508908723104564
1.2362718965832706 -1.1315312091171106 -0.011626455930566845
1.239574332513992 -0.11149685017273402 -0.02393231397820793
1.6681489671666558 -0.11849209321177832 -0.039435200816309114
1.6644350651623196 -1.12171276811598 -0.030441386674442884
1.6461269113367112 -2.1288784728553147 -0.028919677923295962
1.61941159431991 -3.096703522895588 -0.03261720574552366
1.5863312024522638 -4.000889244714333 -0.0383261382225
1.5459814911226588 -4.820192666078715 -0.04452154285399047
1.4982448228441274 -5.533182120673071 -0.05035144522729991
1.443411502860497 -6.118488592896128 -0.05520412271945062
1.383587305678189 -6.554670953687816 -0.05840519364189785
1.3213151818151128 -6.817151500366622 -0.059808330330189285
1.2478967524614968 -6.889038204468727 -0.062096143093361006
1.1745614511356541 -6.818532653823193 -0.060334269011744136
1.1125481696347042 -6.557476589657013 -0.05944346420756552
1.0531854804864584 -6.122799958265321 -0.05671455198578683
0.9990556790129204 -5.539104419746751 -0.05223964368814285
0.9523047878493119 -4.82782445162574 -0.04659324366938591
0.913249812966193 -4.01025765827155 -0.04021959912388153
0.8817181068512322 -3.1076032321885525 -0.033725426613060654
0.8564435893206812 -2.140435806959829 -0.028382827930314634
0.8388830010356453 -1.1317149776328885 -0.027427806911256614
0.8355270235427443 -0.12433645410230365 -0.033766450844142634
2.073054589356478 -0.12304300283341464 -0.048319652216975095
2.0643250224212815 -1.1212429354997497 -0.04385574836305328
2.036761728846309 -2.124178076562494 -0.04980878960862632
1.9905083518373343 -3.090709442456586 -0.061299116048754806
1.927676604250206 -3.9934721466796876 -0.07425267976755426
1.8488687402818702 -4.811147358044001 -0.08675452651418528
1.7543463996230457 -5.522577215452623 -0.09764122434178552
1.6448926859811428 -6.10623041846607 -0.10589488437721747
1.5212479800821042 -6.542027659101812 -0.1105172305162452
1.3930669218783842 -6.8031505942297725 -0.10894419706998526
1.2480944293107699 -6.854700543003952 -0.10678573547451711
1.1032079034604783 -6.804557628533131 -0.10963801065723693
0.9752927077106901 -6.544887391563559 -0.11189988062830246
0.8521155171178475 -6.11062815284506 -0.10794232499650623
0.7433584494556305 -5.528622218128673 -0.10027983006771234
0.6497767340010367 -4.818940628200864 -0.08980993625091321
0.5721157620448256 -4.003036174136445 -0.07737303090696473
0.510467886169118 -3.101787361569401 -0.06385763023325224
0.46508889839213213 -2.1357489304622357 -0.05085801977974165
0.4378344247188337 -1.131111308760889 -0.0424147938219327
0.42919521220821066 -0.12921287064253872 -0.04418410930568284
2.4839831178908356 -0.12397107997995103 -0.057534929425213356
2.4740912268306667 -1.1196659036235164 -0.056494129617074076
2.4390737785982295 -2.117998568059922 -0.06912761815147805
2.3725590697728793 -3.0812877958504625 -0.08772072279781815
2.2792330766816256 -3.981190789300182 -0.10718961827210627
2.1611537139195303 -4.796049625816908 -0.12525548108131104
2.0187295404789354 -5.504643077984125 -0.1404222349302713
1.8528522436958834 -6.085893456667007 -0.15127624363240488
1.665075508119711 -6.518098949299105 -0.15648069554416943
1.4561171860281827 -6.783728295622094 -0.15093551298569519
1.2483506326749438 -6.800000000000002 -0.12826589548000197
1.0406771389122604 -6.785163370268059 -0.15180244103211854
0.8320045822535242 -6.521016664384628 -0.15821906494345414
0.6447230819810736 -6.090382018468513 -0.15387985873699145
0.4795670813743826 -5.510813426629394 -0.1438407897300798
0.33808144448822625 -4.803998481908263 -0.12933771790673007
0.2210588367979127 -3.990917892474616 -0.11159535211818086
0.12861028886948356 -3.0924750619768675 -0.09179552304335165
0.062350454756141926 -2.1295463955278153 -0.07180694893385574
0.026970223232902855 -1.1294494345549544 -0.056575579329532756
0.016821697578536323 -0.130209888930515 -0.05475252205284009
0.0 0.0 0.0
0.02908914629569132 -1.0658090434605156 0.01796620446451285
0.07375100600693699 -2.038329972283649 0.03431455966332933
0.13697275218763166 -2.9724843332828876 0.04950872838824521
0.22423886803985923 -3.846300857008281 0.06123454736272029
0.3364320177307223 -4.640355216803933 0.06946544416974874
0.47314531650273534 -5.334603008786198 0.07363678694449638
0.6337268061722835 -5.909791838618045 0.07336278665983127
0.8175408081599198 -6.347085071205277 0.06882425931490191
1.0238347981440166 -6.626688435600205 0.06195677315089766
1.2473999672429317 -6.725647210220884 0.05798431973668674
1.4709911045943755 -6.627193896284437 0.06199759697176797
1.6773666217169807 -6.348094433412071 0.06893536986145954
1.8613299592222257 -5.911301440605933 0.07360922465449081
2.0221542182486085 -5.336604584756896 0.07413129368487284
2.1592538082026316 -4.642826540522726 0.07037870034932339
2.2720662574524555 -3.849182903270328 0.06282519463240707
2.360359236360172 -2.9756332356217676 0.052050387955642624
2.4252502345589986 -2.041463140057097 0.038552339757411506
2.4732095057735655 -1.0688066746549036 0.022854793170083564
2.51013582487708 0.0 0.020061176464888808
0.4300551948851013 -0.0309881597560973 0.00264808852296007
0.44746839342192923 -1.0642580134095563 0.008237245595720113
0.46873334766110986 -2.0452111179760712 0.02142307658443462
0.5111967214463815 -2.9810969719283493 0.03223586498029494
0.5692920204974445 -3.858137586061579 0.040619054857728085
0.6440131819344822 -4.655201921664359 0.046223923107673724
0.735072056841396 -5.352501449102323 0.04896764276725044
0.8419861747885182 -5.93071799324681 0.048739667011306526
0.9640842082795559 -6.371113573126181 0.0457964830660591
1.100439269303243 -6.6538938173350894 0.04124507768785968
1.2475128880160986 -6.7548320761446465 0.03833556638162025
1.3946120313478234 -6.654404794319423 0.04113980979344422
1.5310469736455177 -6.372134337572562 0.04560890732686221
1.653290142494948 -5.932245826596238 0.04852313128637448
1.760436818890576 -5.354530132106172 0.04881942782624266
1.8518565675850076 -4.657713709235428 0.0463077683237649
1.9271447288784513 -3.8610823218229147 0.04117658218279146
1.9861408876735012 -2.984346225466565 0.03366669763832824
2.0301497299721705 -2.048541800753371 0.024088827689177153
2.054124916792012 -1.067680052894136 0.01356072647336426
2.073090855432715 -0.03152241259206437 0.015182617191259644
0.8430489051352937 -0.05456219867601289 -0.004767571209874181
0.8527028782915816 -1.0640495757901498 -0.00037192577258275526
0.8601155453715243 -2.0477642888149874 0.008289938651923826
0.8795681823715525 -2.9863391029530946 0.015336063941228295
0.9086104966551217 -3.865064511577366 0.020230414723767708
0.9458390230013808 -4.6639568914082465 0.02318484142838012
0.9912517553863079 -5.363031249031676 0.024322170380855126
1.0444333660432241 -5.942944520929648 0.023746793054947743
1.104644551779826 -6.385060213935672 0.021592142806943406
1.1720503698549876 -6.670364838162199 0.017955399701344153
1.24763492529831 -6.774361189798056 0.014744566087987937
1.3232442757470249 -6.670883846642105 0.01770601176670649
1.390727084448085 -6.3860973145373805 0.021110634213701945
1.451075841329637 -5.944497579216066 0.023076432035945275
1.5044717570719965 -5.365095138535106 0.023550373334978014
1.5502054959224232 -4.666516611099805 0.0224696488358881
1.587916972729292 -3.8680758162334414 0.019839016218355956
1.6177111601267091 -2.989681778781649 0.01567753164028958
1.6384123290754404 -2.0512822842134315 0.00996808939250039
1.6471296291573527 -1.0672676231322051 0.004052541659017752
1.6573610995443182 -0.05506227291157247 0.004699789659531549
1.247525419642264 -0.07039789763375609 -0.014761116318108093
1.250797759066341 -1.0647777611308942 -0.009836261304874035
1.2472172380545572 -2.047651722400103 -0.004807696580508408
1.2452972433045295 -2.9878814406798178 -0.0016085311771340317
1.2449410891246815 -3.8673859914255573 -0.00022097526331336348
1.2447163009622033 -4.666850279055738 -4.203119317111103e-05
1.244477713142451 -5.3665140247609635 -0.0006661607403313276
1.2440703279546634 -5.9468300815637365 -0.0018515478092940966
1.242589023762596 -6.389292204979389 -0.0035437642476651827
1.2413820006511904 -6.6770507461706154 -0.006609638028650265
1.2477614862635549 -6.7868554108533905 -0.010968884692527816
1.254164867118794 -6.677580179177911 -0.007003419973644952
1.2530312468446678 -6.390350253458392 -0.004319634880000169
1.2516780615075904 -5.948414666702248 -0.0029756190202209973
1.2514627659638553 -5.368619907476795 -0.0020602093372594685
1.2514963327721293 -4.669463171898059 -0.001547616868763751
1.2516550052868984 -3.8704626893634 -0.0015501257980189628
1.2518715901917916 -2.9913173256296597 -0.002289279287506868
1.25072520461576 -2.051203942896514 -0.004091665232678926
1.2477421104503144 -1.0676906999332327 -0.0064856859827241604
1.2512965111488303 -0.07092381963494143 -0.007428088349789654
1.6492244951578592 -0.07941607871815899 -0.025074645130425798
1.6467069859523888 -1.065429953534651 -0.019683859017121417
1.633024771406266 -2.045664103136205 -0.017841350008937204
1.6109798358684029 -2.985940397095677 -0.018479564450434034
1.5813736986408502 -3.8651031080826432 -0.020608470533653084
1.543609000936982 -4.66395595562348 -0.023230925177363103
1.497646922221055 -5.363045935920653 -0.02564161364723616
1.4438467578173466 -5.942617540354215 -0.02743872750728389
1.3813032549041875 -6.383881076951455 -0.028534554208226738
1.3106877590484909 -6.673562978327075 -0.03022403211467613
1.2478906931680505 -6.794371453263026 -0.036163209344430264
1.1851166800646438 -6.674105230864974 -0.030764916021412052
1.114571118633544 -6.384964655447815 -0.029610632503053198
1.0521463990415867 -5.94423982701269 -0.02902644012609972
0.9985160927992424 -5.365200330408448 -0.027673073789536422
0.9527764036300409 -4.66662552883934 -0.025549424034546516
0.9152934073678236 -3.8682447918800396 -0.02290369707689632
0.8860416232862418 -2.9894396918370236 -0.020209308949460977
0.8643704626832774 -2.049184036255982 -0.018159696701217077
0.8509057534482836 -1.0681062099101786 -0.017478419776070658
0.848529652872342 -0.07998779122458977 -0.01953588840906167
2.052187461612961 -0.083298515286755 -0.0345379497701089
2.0447792739901574 -1.0652961066672706 -0.02929451001854702
2.021287875085183 -2.0420234156090467 -0.03070804741837194
1.979631931605173 -2.9806622671963034 -0.035167316983792135
1.9208411514750308 -3.8581306050007984 -0.04079625100840151
1.8454640144452694 -4.655199866568473 -0.04615236295117722
1.753802347045478 -5.352460736152087 -0.05025551228334744
1.6461767949162742 -5.930421645492909 -0.05240323736382226
1.5242980278323621 -6.368982085537345 -0.05252774453697358
1.3835291028957548 -6.657767357774901 -0.05089124989442357
1.2480205429309434 -6.798830619913167 -0.057195506556345976
1.11253444502877 -6.658324980796671 -0.051584266832660215
0.9718328524280357 -6.370096096501144 -0.053915150826159386
0.8500654262865731 -5.932088385408177 -0.054474108031522486
0.7425912582376999 -5.354670844601794 -0.05295642777185548
0.6511102773051864 -4.657931309010151 -0.04933484582310627
0.5759205709550319 -3.8613327289818993 -0.04413517956180338
0.5172792743506027 -2.9841990757321244 -0.03805853402615293
0.4756694483946782 -2.0455004904628202 -0.032208798460188745
0.4521203784368117 -1.0678293730139352 -0.02829822227011516
0.4447269225420213 -0.0838891971723399 -0.03055544017881732
2.4586571974486255 -0.08453860992221736 -0.04180256869904784
2.4487040170998293 -1.0641559720627043 -0.03828844971129088
2.4160132248819965 -2.0366560252696195 -0.043477266958010706
2.354170529413824 -2.9718783339604014 -0.05192056133320722
2.266018657102369 -3.846265899092694 -0.06112334869409144
2.153063018115629 -4.640291607323469 -0.06919044182878248
2.015683314277111 -5.334571463878787 -0.07482178413332453
1.854338322213711 -5.909301296855871 -0.0771230367841869
1.6708928309705042 -6.346271043215593 -0.0754995277023149
1.4715443633271004 -6.625850223516258 -0.06957281758146072
1.2481460040983114 -6.800000000000002 -0.06690949517368597
1.0247697735736503 -6.626425975409608 -0.07042491043714066
0.8254870988933948 -6.347420879116536 -0.0772138124767896
0.6421482827264419 -5.911020119359614 -0.0797049843695473
0.48094286810427145 -5.336846273804336 -0.07823929705313874
0.3437167112338142 -4.643092723405405 -0.07331512418580481
0.23088426945659948 -3.8495272897446253 -0.06563501869366276
0.14273077662526756 -2.975435741591543 -0.05617472295896911
0.08064769694883826 -2.040084567604034 -0.04641432882926975
0.047566339324529014 -1.066603998336811 -0.038620211307930565
0.03744589560450906 -0.08510363781669325 -0.03905976675201886
0.0 0.0 0.0
0.04038353045349658 -1.0386692136303222 0.007762723286129262
0.0849362973177031 -1.9939716747677052 0.014567162583185874
0.14668804821349532 -2.914298176103669 0.021018405757620415
0.23143898803489962 -3.777549380814331 0.025590085494702156
0.3395420318520826 -4.565125933006551 0.027908657508320712
0.4706832189997433 -5.2583271786332135 0.02779088811115251
0.6250588816090388 -5.839187926096539 0.025277345786233002
0.8046546720350518 -6.289207919939321 0.02089837148591168
1.0132957820023625 -6.584988025983004 0.016184302705462162
1.247462544942751 -6.692575913364826 0.013926308178294646
1.4815991125828645 -6.584868175439109 0.01618864780290261
1.690145040944432 -6.288931374384981 0.02092511337230011
1.8695661011436249 -5.838682582837052 0.02536571493711688
2.023660347856244 -5.2574907523305825 0.028006045418261807
2.154367365846668 -4.563840554784168 0.02834320123734532
2.2618134838255837 -3.7757123212561345 0.026362727320555692
2.3455611115417603 -2.911879900426349 0.022253752086033706
2.4058180452808884 -1.9910678843005765 0.0165731042382897
2.447333898521765 -1.0352039189984268 0.01115669343279306
2.4789948700476203 0.0 0.011383295260686072
0.43189708899489754 -0.026797597232923784 0.00028066994982078625
0.44972728034936416 -1.0385056682819562 0.003983708894470001
0.4732917524141743 -2.001131227614819 0.009191922583051688
0.5155236137616626 -2.9233878631732453 0.013888665545342509
0.5724869745761586 -3.789905311235482 0.017274704044534468
0.6450192373294787 -4.58064709847743 0.018998152063726754
0.7329007853182075 -5.277176861457195 0.019032967783765224
0.8362447608555265 -5.861609944825401 0.017500900095135295
0.9560094192074551 -6.315813628006572 0.01479505341809944
1.093953575287474 -6.616480714576088 0.011828047967020984
1.247445389818819 -6.727244016164982 0.010331494448304246
1.4008998101772119 -6.6163505451141615 0.011741215386436523
1.5387275636802566 -6.315513756169967 0.014634353928473866
1.6582838743246553 -5.861062377548383 0.01729599095692557
1.761304638662729 -5.276269177038466 0.018836443806053826
1.8487128853742385 -4.579244986326467 0.01889300588473621
1.920565825602755 -3.7878813956415622 0.017376051295756
1.9765699168075834 -2.920677360467383 0.014371182730202657
2.017339539558726 -1.9977452622192107 0.010315310518125162
2.038457029206114 -1.034240695148565 0.007078227044554625
2.055274983220942 -0.025473891256696864 0.009034056307357327
0.8400819390309658 -0.04619512919297053 -0.0026917777155397982
0.8492516936455774 -1.0380650762362564 -0.0001553293748107939
0.8578862281497317 -2.004409654118488 0.0034061513386728043
0.8783244965176666 -2.9291487945880164 0.006530336858348953