# vtk DataFile Version 3.0
Some data
ASCII
DATASET UNSTRUCTURED_GRID
POINTS 1029 float
0.0 0.0 0.0
0.8 0.0 0.0
1.6 0.0 0.0
2.4000000000000004 0.0 0.0
3.2 0.0 0.0
4.0 0.0 0.0
4.800000000000001 0.0 0.0
5.6000000000000005 0.0 0.0
6.4 0.0 0.0
7.2 0.0 0.0
8.0 0.0 0.0
8.8 0.0 0.0
9.600000000000001 0.0 0.0
10.4 0.0 0.0
11.200000000000001 0.0 0.0
12.0 0.0 0.0
12.8 0.0 0.0
13.600000000000001 0.0 0.0
14.4 0.0 0.0
15.200000000000001 0.0 0.0
16.0 0.0 0.0
0.0 0.3333333333333333 0.0
0.8 0.3333333333333333 0.0
1.6 0.3333333333333333 0.0
2.4000000000000004 0.3333333333333333 0.0
3.2 0.3333333333333333 0.0
4.0 0.3333333333333333 0.0
4.800000000000001 0.3333333333333333 0.0
5.6000000000000005 0.3333333333333333 0.0
6.4 0.3333333333333333 0.0
7.2 0.3333333333333333 0.0
8.0 0.3333333333333333 0.0
8.8 0.3333333333333333 0.0
9.600000000000001 0.3333333333333333 0.0
10.4 0.3333333333333333 0.0
11.200000000000001 0.3333333333333333 0.0
12.0 0.3333333333333333 0.0
12.8 0.3333333333333333 0.0
13.600000000000001 0.3333333333333333 0.0
14.4 0.3333333333333333 0.0
15.200000000000001 0.3333333333333333 0.0
16.0 0.3333333333333333 0.0
0.0 0.6666666666666666 0.0
0.8 0.6666666666666666 0.0
1.6 0.6666666666666666 0.0
2.4000000000000004 0.6666666666666666 0.0
3.2 0.6666666666666666 0.0
4.0 0.6666666666666666 0.0
4.800000000000001 0.6666666666666666 0.0
5.6000000000000005 0.6666666666666666 0.0
6.4 0.6666666666666666 0.0
7.2 0.6666666666666666 0.0
8.0 0.6666666666666666 0.0
8.8 0.6666666666666666 0.0
9.600000000000001 0.6666666666666666 0.0
10.4 0.6666666666666666 0.0
11.200000000000001 0.6666666666666666 0.0
12.0 0.6666666666666666 0.0
12.8 0.6666666666666666 0.0
13.600000000000001 0.6666666666666666 0.0
14.4 0.6666666666666666 0.0
15.200000000000001 0.6666666666666666 0.0
16.0 0.6666666666666666 0.0
0.0 1.0 0.0
0.8 1.0 0.0
1.6 1.0 0.0
2.4000000000000004 1.0 0.0
3.2 1.0 0.0
4.0 1.0 0.0
4.800000000000001 1.0 0.0
5.6000000000000005 1.0 0.0
6.4 1.0 0.0
7.2 1.0 0.0
8.0 1.0 0.0
8.8 1.0 0.0
9.600000000000001 1.0 0.0
10.4 1.0 0.0
11.200000000000001 1.0 0.0
12.0 1.0 0.0
12.8 1.0 0.0
13.600000000000001 1.0 0.0
14.4 1.0 0.0
15.200000000000001 1.0 0.0
16.0 1.0 0.0
0.0 1.3333333333333333 0.0
0.8 1.3333333333333333 0.0
1.6 1.3333333333333333 0.0
2.4000000000000004 1.3333333333333333 0.0
3.2 1.3333333333333333 0.0
4.0 1.3333333333333333 0.0
4.800000000000001 1.3333333333333333 0.0
5.6000000000000005 1.3333333333333333 0.0
6.4 1.3333333333333333 0.0
7.2 1.3333333333333333 0.0
8.0 1.3333333333333333 0.0
8.8 1.3333333333333333 0.0
9.600000000000001 1.3333333333333333 0.0
10.4 1.3333333333333333 0.0
11.200000000000001 1.3333333333333333 0.0
12.0 1.3333333333333333 0.0
12.8 1.3333333333333333 0.0
13.600000000000001 1.3333333333333333 0.0
14.4 1.3333333333333333 0.0
15.200000000000001 1.3333333333333333 0.0
16.0 1.3333333333333333 0.0
0.0 1.6666666666666665 0.0
0.8 1.6666666666666665 0.0
1.6 1.6666666666666665 0.0
2.4000000000000004 1.6666666666666665 0.0
3.2 1.6666666666666665 0.0
4.0 1.6666666666666665 0.0
4.800000000000001 1.6666666666666665 0.0
5.6000000000000005 1.6666666666666665 0.0
6.4 1.6666666666666665 0.0
7.2 1.6666666666666665 0.0
8.0 1.6666666666666665 0.0
8.8 1.6666666666666665 0.0
9.600000000000001 1.6666666666666665 0.0
10.4 1.6666666666666665 0.0
11.200000000000001 1.6666666666666665 0.0
12.0 1.6666666666666665 0.0
12.8 1.6666666666666665 0.0
13.600000000000001 1.6666666666666665 0.0
14.4 1.6666666666666665 0.0
15.200000000000001 1.6666666666666665 0.0
16.0 1.6666666666666665 0.0
0.0 2.0 0.0
0.8 2.0 0.0
1.6 2.0 0.0
2.4000000000000004 2.0 0.0
3.2 2.0 0.0
4.0 2.0 0.0
4.800000000000001 2.0 0.0
5.6000000000000005 2.0 0.0
6.4 2.0 0.0
7.2 2.0 0.0
8.0 2.0 0.0
8.8 2.0 0.0
9.600000000000001 2.0 0.0
10.4 2.0 0.0
11.200000000000001 2.0 0.0
12.0 2.0 0.0
12.8 2.0 0.0
13.600000000000001 2.0 0.0
14.4 2.0 0.0
15.200000000000001 2.0 0.0
16.0 2.0 0.0
0.0 0.0 1.6666666666666667
0.8 0.0 1.6666666666666667
1.6 0.0 1.6666666666666667
2.4000000000000004 0.0 1.6666666666666667
3.2 0.0 1.6666666666666667
4.0 0.0 1.6666666666666667
4.800000000000001 0.0 1.6666666666666667
5.6000000000000005 0.0 1.6666666666666667
6.4 0.0 1.6666666666666667
7.2 0.0 1.6666666666666667
8.0 0.0 1.6666666666666667
8.8 0.0 1.6666666666666667
9.600000000000001 0.0 1.6666666666666667
10.4 0.0 1.6666666666666667
11.200000000000001 0.0 1.6666666666666667
12.0 0.0 1.6666666666666667
12.8 0.0 1.6666666666666667
13.600000000000001 0.0 1.6666666666666667
14.4 0.0 1.6666666666666667
15.200000000000001 0.0 1.6666666666666667
16.0 0.0 1.6666666666666667
0.0 0.3333333333333333 1.6666666666666667
0.8 0.3333333333333333 1.6666666666666667
1.6 0.3333333333333333 1.6666666666666667
2.4000000000000004 0.3333333333333333 1.6666666666666667
3.2 0.3333333333333333 1.6666666666666667
4.0 0.3333333333333333 1.6666666666666667
4.800000000000001 0.3333333333333333 1.6666666666666667
5.6000000000000005 0.3333333333333333 1.6666666666666667
6.4 0.3333333333333333 1.6666666666666667
7.2 0.3333333333333333 1.6666666666666667
8.0 0.3333333333333333 1.6666666666666667
8.8 0.3333333333333333 1.6666666666666667
9.600000000000001 0.3333333333333333 1.6666666666666667
10.4 0.3333333333333333 1.6666666666666667
11.200000000000001 0.3333333333333333 1.6666666666666667
12.0 0.3333333333333333 1.6666666666666667
12.8 0.3333333333333333 1.6666666666666667
13.600000000000001 0.3333333333333333 1.6666666666666667
14.4 0.3333333333333333 1.6666666666666667
15.200000000000001 0.3333333333333333 1.6666666666666667
16.0 0.3333333333333333 1.6666666666666667
0.0 0.6666666666666666 1.6666666666666667
0.8 0.6666666666666666 1.6666666666666667
1.6 0.6666666666666666 1.6666666666666667
2.4000000000000004 0.6666666666666666 1.6666666666666667
3.2 0.6666666666666666 1.6666666666666667
4.0 0.6666666666666666 1.6666666666666667
4.800000000000001 0.6666666666666666 1.6666666666666667
5.6000000000000005 0.6666666666666666 1.6666666666666667
6.4 0.6666666666666666 1.6666666666666667
7.2 0.6666666666666666 1.6666666666666667
8.0 0.6666666666666666 1.6666666666666667
8.8 0.6666666666666666 1.6666666666666667
9.600000000000001 0.6666666666666666 1.6666666666666667
10.4 0.6666666666666666 1.6666666666666667
11.200000000000001 0.6666666666666666 1.6666666666666667
12.0 0.6666666666666666 1.6666666666666667
12.8 0.6666666666666666 1.6666666666666667
13.600000000000001 0.6666666666666666 1.6666666666666667
14.4 0.6666666666666666 1.6666666666666667
15.200000000000001 0.6666666666666666 1.6666666666666667
16.0 0.6666666666666666 1.6666666666666667
0.0 1.0 1.6666666666666667
0.8 1.0 1.6666666666666667
1.6 1.0 1.6666666666666667
2.4000000000000004 1.0 1.6666666666666667
3.2 1.0 1.6666666666666667
4.0 1.0 1.6666666666666667
4.800000000000001 1.0 1.6666666666666667
5.6000000000000005 1.0 1.6666666666666667
6.4 1.0 1.6666666666666667
7.2 1.0 1.6666666666666667
8.0 1.0 1.6666666666666667
8.8 1.0 1.6666666666666667
9.600000000000001 1.0 1.6666666666666667
10.4 1.0 1.6666666666666667
11.200000000000001 1.0 1.6666666666666667
12.0 1.0 1.6666666666666667
12.8 1.0 1.6666666666666667
13.600000000000001 1.0 1.6666666666666667
14.4 1.0 1.6666666666666667
15.200000000000001 1.0 1.6666666666666667
16.0 1.0 1.6666666666666667
0.0 1.3333333333333333 1.6666666666666667
0.8 1.3333333333333333 1.6666666666666667
1.6 1.3333333333333333 1.6666666666666667
2.4000000000000004 1.3333333333333333 1.6666666666666667
3.2 1.3333333333333333 1.6666666666666667
4.0 1.3333333333333333 1.6666666666666667
4.800000000000001 1.3333333333333333 1.6666666666666667
5.6000000000000005 1.3333333333333333 1.6666666666666667
6.4 1.3333333333333333 1.6666666666666667
7.2 1.3333333333333333 1.6666666666666667
8.0 1.3333333333333333 1.6666666666666667
8.8 1.3333333333333333 1.6666666666666667
9.600000000000001 1.3333333333333333 1.6666666666666667
10.4 1.3333333333333333 1.6666666666666667
11.200000000000001 1.3333333333333333 1.6666666666666667
12.0 1.3333333333333333 1.6666666666666667
12.8 1.3333333333333333 1.6666666666666667
13.600000000000001 1.3333333333333333 1.6666666666666667
14.4 1.3333333333333333 1.6666666666666667
15.200000000000001 1.3333333333333333 1.6666666666666667
16.0 1.3333333333333333 1.6666666666666667
0.0 1.6666666666666665 1.6666666666666667
0.8 1.6666666666666665 1.6666666666666667
1.6 1.6666666666666665 1.6666666666666667
2.4000000000000004 1.6666666666666665 1.6666666666666667
3.2 1.6666666666666665 1.6666666666666667
4.0 1.6666666666666665 1.6666666666666667
4.800000000000001 1.6666666666666665 1.6666666666666667
5.6000000000000005 1.6666666666666665 1.6666666666666667
6.4 1.6666666666666665 1.6666666666666667
7.2 1.6666666666666665 1.6666666666666667
8.0 1.6666666666666665 1.6666666666666667
8.8 1.6666666666666665 1.6666666666666667
9.600000000000001 1.6666666666666665 1.6666666666666667
10.4 1.6666666666666665 1.6666666666666667
11.200000000000001 1.6666666666666665 1.6666666666666667
12.0 1.6666666666666665 1.6666666666666667
12.8 1.6666666666666665 1.6666666666666667
13.600000000000001 1.6666666666666665 1.6666666666666667
14.4 1.6666666666666665 1.6666666666666667
15.200000000000001 1.6666666666666665 1.6666666666666667
16.0 1.6666666666666665 1.6666666666666667
0.0 2.0 1.6666666666666667
0.8 2.0 1.6666666666666667
1.6 2.0 1.6666666666666667
2.4000000000000004 2.0 1.6666666666666667
3.2 2.0 1.6666666666666667
4.0 2.0 1.6666666666666667
4.800000000000001 2.0 1.6666666666666667
5.6000000000000005 2.0 1.6666666666666667
6.4 2.0 1.6666666666666667
7.2 2.0 1.6666666666666667
8.0 2.0 1.6666666666666667
8.8 2.0 1.6666666666666667
9.600000000000001 2.0 1.6666666666666667
10.4 2.0 1.6666666666666667
11.200000000000001 2.0 1.6666666666666667
12.0 2.0 1.6666666666666667
12.8 2.0 1.6666666666666667
13.600000000000001 2.0 1.6666666666666667
14.4 2.0 1.6666666666666667
15.200000000000001 2.0 1.6666666666666667
16.0 2.0 1.6666666666666667
0.0 0.0 3.3333333333333335
0.8 0.0 3.3333333333333335
1.6 0.0 3.3333333333333335
2.4000000000000004 0.0 3.3333333333333335
[...]
POINT_DATA 1029
VECTORS Disp float
0.0 0.0 0.0
0.007317170094940449 -0.265331496911427 0.006351026279907484
0.017620241723350503 -0.49999063785761183 0.01367508996695259
0.031870171403891284 -0.7260255185295484 0.019523730422154984
0.05214870805591576 -0.9373079406498943 0.02482343476566154
0.0787402637575855 -1.1288565085450015 0.029205205630536437
0.11153507872312446 -1.2954078295449158 0.03248677692962274
0.15033476939649518 -1.431871986603456 0.0344350257844032
0.19460909618003458 -1.5332871339079466 0.034886774415591834
0.24304085114799365 -1.5954169605478083 0.03410897982673202
0.2934465819062851 -1.6161194674691268 0.033405041843035034
0.3438702267270724 -1.5957200992827658 0.03413702751979594
0.392359218817533 -1.5339004815717234 0.03495270910347853
0.4367410617965651 -1.4328084544522062 0.03456061015989587
0.4757184112117441 -1.2966828869949245 0.03270947638176599
0.5087924665646067 -1.1304801882856121 0.029585141770925916
0.5358089514386809 -0.9392708209095347 0.025445819774089048
0.5567207622333104 -0.7282745175896692 0.020535483842765413
0.5718930497290207 -0.5024220051973962 0.01516802458508293
0.5837870895162964 -0.26774956274373024 0.00901750260265724
0.5949227565146631 0.0 -5.1485501680138566e-05
0.10413597997810735 -0.011330363336304387 -0.003334602161329497
0.10863052550766047 -0.26415368331022404 0.0033270461983063667
0.1122539541278193 -0.5015881372441374 0.008662964870634735
0.12159176581516776 -0.7279021542327696 0.01318528918189328
0.1347653970366439 -0.940007253300564 0.016970270758973813
0.15215905354599948 -1.1322773292022115 0.020084620654018066
0.17367316493005494 -1.2995571601748843 0.022392489386527114
0.19917120232235672 -1.4367202415464468 0.02378749460068441
0.22830531197419218 -1.5387423297317504 0.024196469537484028
0.2602277887936756 -1.60122517283683 0.02378707874130887
0.2935011867151507 -1.6219477293568196 0.023351629119353543
0.32679352777997833 -1.6015332996011096 0.02377742513830872
0.3587760734467094 -1.5393665853893475 0.02418552951323926
0.38802136228064843 -1.437675503085259 0.023794232556851907
0.4136992757721919 -1.300862025848976 0.022451238321924437
0.4354884665046285 -1.133946597162259 0.02025119759483616
0.4532898641912189 -0.9420369799941006 0.017335234207217567
0.46705051261073965 -0.7302471775459081 0.013869444016997102
0.4772385499944279 -0.5041573175347434 0.009903345807158825
0.48207433596560456 -0.2667632106161349 0.005140549918200145
0.48721872486785667 -0.011957011553922231 -0.0013448350018638343
0.20244616653266703 -0.019672422820671793 -0.005449344315444629
0.20476374174927364 -0.2637584027414356 -0.00029489379386202707
0.20516812128245956 -0.5019503725868548 0.0035145116352064154
0.20879131110210947 -0.7290358421213321 0.006322684576437396
0.21501429133444114 -0.9415554811671406 0.008471326709106079
0.22338692884579223 -1.1342823160702937 0.010111272552032445
0.23389787197734668 -1.3019958223013857 0.01125260019418987
0.24649488030542724 -1.4395944827162777 0.01187201432953095
0.26108515599333904 -1.541992289484826 0.011957677902163738
0.2771655617903877 -1.6045506606922566 0.01153907495647402
0.29354448259320814 -1.6249207056373691 0.011067150358506955
0.3099427102449213 -1.6048641790119258 0.011491783419408026
0.32608396432701053 -1.5426281525203611 0.011869851853729598
0.34078547844616736 -1.4405692266533474 0.011759699068832953
0.3535590394209777 -1.303330623365485 0.01114624778052418
0.3643333720314878 -1.1359956611286766 0.010064192924565936
0.37308451805707377 -0.9436483707508022 0.008570133031349599
0.379834838461957 -0.731465341228092 0.006704516569568172
0.38416281467226354 -0.5046313921202579 0.004371739468862185
0.38514339176127593 -0.26627589580410277 0.0011503846142842493
0.3877405660970841 -0.020637719042384147 -0.003424604342758978
0.2978667686875541 -0.025018621317807185 -0.007338034504498307
0.29848956914790664 -0.2638254204423832 -0.0038175763501496775
0.2964463865347543 -0.5016493321627519 -0.0016878707205880848
0.2949225623911724 -0.7292598379541757 -0.0006957793854034859
0.2941142228640904 -0.9420207397140039 -0.00028111564534355536
0.29356999951586094 -1.1349062669263312 -0.00018744730434529575
0.2932015091749854 -1.3027820798259273 -0.00029978472594586813
0.2930650526168424 -1.440570209106222 -0.0005561676040421516
0.2933708174644585 -1.5431518635278223 -0.0008990435898652174
0.2939900117555718 -1.6054377393323351 -0.0013959798328232347
0.29358310321873277 -1.624737897091068 -0.0019959131849147825
0.2931955833583999 -1.6057568906618054 -0.001481187215229097
0.29387552707674686 -1.543799719744906 -0.0010644067621746304
0.2942910069938158 -1.4415647174541093 -0.0007888111236608909
0.29432534018503737 -1.3041464380228096 -0.0005731522253251776
0.29420450162833806 -1.1366619792822346 -0.00045189847068161717
0.29400260414670804 -0.9441716242990121 -0.00045025833423088937
0.29364837187076687 -0.7317664404328578 -0.0006297323489621564
0.2926230029920477 -0.5043628296859802 -0.0011974322893590298
0.2908875050784582 -0.26624263743917487 -0.0027356366892249506
0.2916645488268611 -0.02623455298177269 -0.005631132700411525
0.39250563933331917 -0.027880492520404535 -0.00927887078030459
0.3916317800381819 -0.26393241602725404 -0.0071626792175013086
0.38732397913804073 -0.5009125818482468 -0.006804630099573283
0.3810380221929146 -0.7286361230341737 -0.007674636645966625
0.3732544005769987 -0.9413857046385581 -0.009017914875828143
0.36376035085239256 -1.1341629802536868 -0.010475657142046917
0.35252819361039217 -1.3019252048641101 -0.011847398876924181
0.33962623596718805 -1.4396443747989378 -0.012989205345649195
0.32554995427722855 -1.5422755185146373 -0.013742398503863098
0.3108976898388477 -1.6040356471449706 -0.014072548312862972
0.29362276528507203 -1.62095016575727 -0.014610857198310569
0.2763674002672386 -1.6043606244288044 -0.014196298590837349
0.2617760399140756 -1.542935668154309 -0.013986697460411642
0.24780834834978038 -1.4406588137091483 -0.013344600467026615
0.2350719244736616 -1.3033186869988547 -0.012291680867558647
0.2240717147881139 -1.135958694499768 -0.010963116157240532
0.21488230893327018 -0.9435900372399888 -0.009463435087693867
0.2074630839650529 -0.7312007605146313 -0.007935394496895431
0.20151613866375623 -0.503631954578544 -0.006678312453880825
0.19738423553787027 -0.26628587708994766 -0.006453601625849883
0.1965945937748373 -0.029255636259312268 -0.007945047257096344
0.48777755043679927 -0.028951294784318647 -0.011369329933403545
0.48572353468734275 -0.2638218671763757 -0.010318999614822012
0.47923805384617585 -0.499806606249935 -0.01171971520200298
0.46835490631465393 -0.7272257511661699 -0.014423321423195691
0.4535709657059211 -0.9396405051009994 -0.017471218768778385
0.4350279388898513 -1.1320346724808186 -0.02041282976797157
0.41278738814660926 -1.299429933047538 -0.022974405727383778
0.3870335731720449 -1.4367600984624476 -0.02491644338275938
0.35794070119580024 -1.5393006256708686 -0.026004054238989695
0.3277804522066779 -1.6007413162892474 -0.02563392872221712
0.29366927748488725 -1.6128707160008873 -0.025126055405641265
0.25957833022599797 -1.6010723831840832 -0.02579717897800544
0.22948063710839872 -1.5399735038970324 -0.02632938367704391
0.20049776873362155 -1.4377948594926107 -0.02539819411659154
0.17490787046017248 -1.3008522866181262 -0.02359525413331965
0.15288864329440305 -1.1338683831056788 -0.021131749705814152
0.13461547342237196 -0.9418908645023145 -0.01820541903663571
0.12011009086340098 -0.7298323203689466 -0.015025324760455226
0.10943268197471334 -0.5025291601085263 -0.011966592889028526
0.1030198646398283 -0.26614383735535885 -0.009979951487178207
0.10098710875497874 -0.030403028386425047 -0.01039626101274728
0.5844666159742867 -0.029169665877621067 -0.013537630452989809
0.5821391121954241 -0.26345080085255695 -0.013292736380474878
0.5738997126113247 -0.4983526042493299 -0.016265321917969037
0.5582491928877185 -0.7250088931412062 -0.02064017007003322
0.5362901356897808 -0.9367507739528823 -0.025221086652202445
0.5085067562163539 -1.1284822648979846 -0.02947187790140972
0.4749951859950458 -1.2952101359961274 -0.03304052586584694
0.4359652338108066 -1.4319749309803211 -0.035594410266317676
0.39178247249877407 -1.53367034101141 -0.03681898718672046
0.3426158084772409 -1.596171363675665 -0.035514238349434284
0.2937295606293823 -1.6 -0.030180210701051053
0.24486520915578208 -1.5965090282981684 -0.03571822141914808
0.19576578405962516 -1.5343568622078732 -0.03722801528060149
0.1516995487014194 -1.4330310631687195 -0.03620702558492423
0.11283931326457328 -1.2966619827359407 -0.033844891700917146
0.0795485751737447 -1.1303525839780009 -0.03043240421303952
0.052013843952527 -0.9390395041113029 -0.026257729909843774
0.03026124443998561 -0.7276411910530606 -0.02159894659810941
0.014670695236866448 -0.5010697401239578 -0.016895752689987182
0.006345934878467028 -0.2657528081304347 -0.013311901018371841
0.003958046489207659 -0.030637620924771965 -0.012882946365014664
0.0 0.0 0.0
0.006844505010753598 -0.2507785984612565 0.0042273422269550566
0.017353177883984938 -0.479607052301964 0.008074014038451724
0.03222888286767217 -0.6994080784194111 0.011649112561971656
0.052762086597600975 -0.9050119663547944 0.014408128791266295
0.07916047476015049 -1.0918482863067083 0.016344810392926214
0.11132830976532453 -1.2552007079496053 0.017326302810517755
0.14911218968757106 -1.390539256145337 0.01726183215531288
0.19236254309643355 -1.493431781459986 0.01619394336828256
0.24090230544565652 -1.5592208083764643 0.014578064270887444
0.29350587464543715 -1.5825052259342132 0.013643369349914886
0.3461155540222574 -1.559339740302063 0.014587669875831419
0.3946744992275779 -1.493669278449688 0.016220087026364353
0.43795999040527067 -1.3908944566129011 0.017319817565918435
0.47580099252909636 -1.2556716670013248 0.017442657337789377
0.5080597195770806 -1.092429774240363 0.01655969420003729
0.5346038252828997 -0.9056900948868484 0.014782398737252995
0.5553786438493918 -0.7001489966166399 0.012247150107453015
0.5706471140137973 -0.4803442682485366 0.009071138766720709
0.5819316484172085 -0.2514839234480972 0.005377598393259881
0.5906201940886063 0.0 0.004720276815586238
0.10118945762001526 -0.0072913317073113005 0.0006230796524624799
0.10528668080514972 -0.2504136502139715 0.0019381754342983758
0.11029019944966234 -0.48122614540606506 0.00504072390224178
0.12028158151678456 -0.7014345816301084 0.007584909407160962
0.13395106364644288 -0.9077970790732127 0.009557424672447568
0.15153251339632964 -1.0953416286268067 0.01087621720185463
0.17295813102148194 -1.2594121056710421 0.011521798298235192
0.1981143940678632 -1.3954630572344597 0.011468156943906075
0.2268433431245882 -1.499085546617851 0.010775643074450406
0.25892688689487975 -1.5656220746670193 0.009704724161950989
0.2935324442391009 -1.5893722532104058 0.009020133266383701
0.32814400737599025 -1.5657423045455867 0.009679955245651189
0.3602463467401529 -1.49932572648744 0.010731507606472446
0.38900944529295234 -1.3958225474341421 0.011417207361668744
0.41422042797426006 -1.2598894428482141 0.011486924194597743
0.43573095707881654 -1.0959326374668743 0.010895945488154212
0.45344581855961147 -0.9084899580756921 0.009688607572652285
0.46732726768783966 -0.7021991118742317 0.007921575915155977
0.4776822894051587 -0.4820098354711875 0.005667959456556629
0.4833235098333496 -0.2512188359749774 0.003190759170507934
0.48778608363115716 -0.007417038256942748 0.003572380515911875
0.19836444826710908 -0.012838164394344742 -0.0011217814611445113
0.20063597136270572 -0.2503646060682317 -8.751194647815663e-05
0.202380128322694 -0.4818268914858082 0.0019505738004757
0.20695721938152417 -0.7026680242241705 0.0036084856332646398
0.21379070509530537 -0.909426943900457 0.004760097582107759
0.22255035835324766 -1.0974016215077194 0.005455256806733882
0.2332357071496968 -1.2618897056544152 0.005722863619092895
0.245749027304265 -1.3983398872774842 0.005587480718891599
0.25991636512464994 -1.5023671091612671 0.005080504189964019
0.27577655761293046 -1.5694976089792883 0.004224799929840326
0.2935611588937263 -1.5939673387759163 0.0034693096678966996
0.31135159429343456 -1.5696197286215177 0.004166120415844332
0.32722990222309056 -1.5026111328321021 0.004967208050448668
0.34142960972462916 -1.3987053127564595 0.005429748714523146
0.353993354605176 -1.2623753267138365 0.005541264314315437
0.36475423433468135 -1.0980039084937878 0.005286976196903335
0.3736275229951127 -0.9101354861722822 0.00466800381632946
0.38063792002979036 -0.7034545361836639 0.0036888309744520864
0.3855087833118387 -0.4826546551088525 0.002345432798523871
0.38755991274287716 -0.25112179367805093 0.0009535392141974217
0.3899673175398039 -0.012955828920346921 0.001105832861394373
0.2935353928569762 -0.01656421120792857 -0.0034732038395521533
0.2943053550744069 -0.25053594379546523 -0.002314414424663354
0.2934628795422247 -0.48180040527054263 -0.0011312227248018605
0.2930111160716289 -0.7030309272186915 -0.0003784779239947082
0.292927315088139 -0.9099731744529707 -5.1994179554412954e-05
0.29287442375579076 -1.0980824186012412 -9.889692448298817e-06
0.2928182854452625 -1.2627091822965941 -0.00015674370353020362
0.2927224301069588 -1.399254136838459 -0.00043565830797790794
0.29237388794412306 -1.503362871759793 -0.000833826881697951
0.2920898825061465 -1.5710707638048007 -0.0015552089477946956
0.29359093794435887 -1.5969071554948464 -0.002580914045156272
0.2950976157926583 -1.5711953362769935 -0.0016478635230508566
0.2948308816105072 -1.5036118243429197 -0.0010163846774687692
0.29451248506060335 -1.399626980400266 -0.0007001456516193185
0.294461827285609 -1.2632046841118845 -0.0004847551379607021
0.2944697253581442 -1.0986972169169036 -0.0003641451453525727
0.2945070600674993 -0.9106971033793223 -0.00036473548162756626
0.29455802122159425 -0.7038393707361408 -0.0005386539497236577
0.29428828343900026 -0.48263622185781047 -0.0009627447603325951
0.2935863789294847 -0.25122134116064687 -0.0015260437603231444
0.2944227085056037 -0.016687957561132737 -0.0017477854937319381
0.38805282239004957 -0.018686136168963544 -0.005899916501273957
0.38746046728287914 -0.2506894008316422 -0.004631496239309105
0.3842411226837945 -0.4813327301496271 -0.004197964707960324
0.37905407902783095 -0.7025742110812472 -0.0043481328118288734
0.3720879290919394 -0.9094360254311119 -0.004849051890218425
0.36320211786750356 -1.0974014013230624 -0.005466100041662795
0.3523875111108185 -1.261893161392997 -0.0060333208580872445
0.3397286488981837 -1.398262950671509 -0.0064561711780838135
0.32501253056567186 -1.5020896651649802 -0.006714012754760347
0.30839711977609163 -1.5702501125474952 -0.007111536968025483
0.2936213395689306 -1.5986756360618373 -0.008508990433832513
0.2788509835446088 -1.5703777013798317 -0.00723880376957363
0.26225202791375457 -1.5023446248110268 -0.006967207647586627
0.24756385859800364 -1.3986446651791904 -0.006829750617692859
0.2349449630115758 -1.2624000777428694 -0.006511311479655624
0.22418268320706522 -1.0980295361972041 -0.006011629184344194
0.21536315467478942 -0.9101752451479461 -0.00538910519429096
0.20848038194971957 -0.7033975745496382 -0.004755131517230649
0.20338128533726463 -0.48216094970710005 -0.004272869811743733
0.2002131184584466 -0.2513191082140434 -0.0041125693587503835
0.19965403596998957 -0.01882065675869437 -0.004596679625317119
0.48286763802653504 -0.019599650655691293 -0.00812657641649365
0.48112453505646413 -0.2506579074510822 -0.006892825886703165
0.4755971470788249 -0.4804760977902966 -0.007225422921944043
0.46579574861295003 -0.7013322981637488 -0.008274662819676058
0.4519626238764474 -0.9077954364706768 -0.009599117884273556
0.4342268269282766 -1.095341145074833 -0.010859379517847153
0.41265937577539225 -1.259402526153322 -0.01182482641951685
0.38733571645087367 -1.3953933283511981 -0.012330173497256366
0.3586583594899536 -1.4985840201263734 -0.01235946930268802
0.325536259504854 -1.5665334959469723 -0.011974411739722324
0.2936518924543031 -1.599724851744248 -0.013457766248392252
0.26177281059497065 -1.5666647013637618 -0.012137474548681899
0.22866655351243828 -1.4988461403529718 -0.012685917841245491
0.2000153944203395 -1.3957855024487233 -0.012817437183658388
0.17472735487944333 -1.2599225516707084 -0.01246033594606728
0.15320241818945504 -1.095983837413863 -0.011608199016930845
0.1355107225776711 -0.9085488774072122 -0.010384748131901366
0.12171277043547266 -0.7021644884073114 -0.00895494918232172
0.11192222315173805 -0.4812942330498813 -0.007578540813845405
0.10638126551459942 -0.2512539701208117 -0.006658405239694934
0.10464162883347507 -0.01973863462875135 -0.0071895153358406474
0.5785075758702101 -0.019891437628741803 -0.009835898517420555
0.5761656510822637 -0.25038964048530093 -0.00900904699087861
0.5684736999721857 -0.47921318241631616 -0.010229945166563923
0.5539224775090891 -0.6992654903435409 -0.01221660266659561
0.5331808604946432 -0.9050037409628853 -0.014381964398550783
0.5066030630860077 -1.0918333193701264 -0.01628010395963081
0.4742784268887214 -1.2551932856184247 -0.017605125678324632
0.43631489934439593 -1.3904238345542494 -0.018146596890269564
0.3931512543459866 -1.4932402454624285 -0.017764594753342206
0.34624573254753344 -1.5590235820037626 -0.01637007472489632
0.2936814127289636 -1.6 -0.015743410628938262
0.24112229966431056 -1.5591590530374033 -0.01657056716149149
0.19423225856308912 -1.4935107950860087 -0.018167955876673487
0.15109371358265003 -1.390828263378469 -0.018754113969060356
0.11316302778921736 -1.2557285350124892 -0.018409246365175276
0.08087452029031139 -1.0924924055068634 -0.017250617455198698
0.05432571046040267 -0.9057711269984524 -0.015443533809971632
0.033583712147177806 -0.7001025274330615 -0.013217581872384084
0.018975928693920067 -0.4800198982595822 -0.01092101854773701
0.01119207984115402 -0.2509656466673703 -0.00908710854270442
0.008810798965857188 -0.02002438536859944 -0.009190533353059428
0.0 0.0 0.0
0.009502007165514241 -0.2443927561482717 0.00182652312615756
0.01998501113355364 -0.4691698058276392 0.0034275676666519644
0.03451483487372825 -0.6857172179066691 0.00494550723711671
0.054456232478752385 -0.8888351484268221 0.006021196587026719
0.07989224278866479 -1.0741472783544048 0.006566742943178799
0.11074899270575521 -1.2372534537960054 0.006539032496794173
0.14707267802559507 -1.3739265708462283 0.0059476107732923285
0.189330511067023 -1.4798136282210193 0.004917263879115476
0.2384225369417083 -1.5494089472901171 0.003808071224916387
0.2935205988100552 -1.5747237443210984 0.003276778395009899
0.3486115559018558 -1.5493807471620626 0.0038090936008131184
0.39768118610457875 -1.479748558678676 0.004923556087735314
0.43989790615143415 -1.3738076665497072 0.005968403514764252
0.4761553759661662 -1.2370566476069906 0.00658965774564414
0.5069099684344726 -1.0738448364195488 0.006668988526629385
0.5321914079588944 -0.8884028991188667 0.006202994663881854
0.5518967321273901 -0.6851482118648254 0.005236176961666606
0.5660748341836388 -0.46848656101175296 0.003899553938694102
0.5758432702402992 -0.24357739270542514 0.002625104337425901
0.583292910599314 0.0 0.0026784224145958296
0.10162284446936716 -0.006305316995976613 6.603998819464288e-05
0.10581818361158991 -0.24435427488983413 0.0009373432692972986
0.11136276527389181 -0.4708544064975451 0.0021628053136804604
0.12129967382623387 -0.6878559678053906 0.0032679213048184934
0.1347028175472834 -0.8917424261729753 0.0040646362458152474
0.15176923231276543 -1.0777993172887328 0.004470153426811428
0.17244724360422814 -1.2416886732840045 0.004478345360949124
0.19676347314242362 -1.3792023399588962 0.004117858845990141
0.22494339275465114 -1.486073794825077 0.0034811890396458382
0.25740084124408047 -1.556818991664964 0.002783070109996795
0.2935165623102911 -1.5828809449799597 0.002430939870317015
0.329623484747565 -1.5567883635561985 0.0027626389145955213
0.3620535443953381 -1.4860032367457428 0.003443377395087198
0.3901844410175484 -1.3790735005994352 0.004069644931210242