# vtk DataFile Version 2.0
Some data
ASCII
DATASET UNSTRUCTURED_GRID
POINTS 682 float
-50.0 -50.0 0.0
50.0 -50.0 0.0
50.0 50.0 0.0
-50.0 50.0 0.0
0.0 20.0 0.0
0.0 -20.0 0.0
-45.99999999999896 50.0 0.0
-41.9999999999979 50.0 0.0
-37.99999999999686 50.0 0.0
-33.99999999999581 50.0 0.0
-30.00000000000059 50.0 0.0
-26.00000000001376 50.0 0.0
-22.00000000002693 50.0 0.0
-18.0000000000401 50.0 0.0
-14.00000000005324 50.0 0.0
-10.0000000000664 50.0 0.0
-6.000000000079542 50.0 0.0
-2.000000000092656 50.0 0.0
1.999999999906121 50.0 0.0
5.999999999915295 50.0 0.0
9.999999999923459 50.0 0.0
13.99999999993163 50.0 0.0
17.99999999994331 50.0 0.0
21.99999999995853 50.0 0.0
25.99999999997376 50.0 0.0
29.99999999998899 50.0 0.0
33.99999999999586 50.0 0.0
37.9999999999969 50.0 0.0
41.99999999999793 50.0 0.0
45.99999999999896 50.0 0.0
50.0 45.99999999999896 0.0
50.0 41.9999999999979 0.0
50.0 37.99999999999686 0.0
50.0 33.99999999999581 0.0
50.0 30.00000000000059 0.0
50.0 26.00000000001376 0.0
50.0 22.00000000002693 0.0
50.0 18.0000000000401 0.0
50.0 14.00000000005324 0.0
50.0 10.0000000000664 0.0
50.0 6.000000000079542 0.0
50.0 2.000000000092656 0.0
50.0 -1.999999999906121 0.0
50.0 -5.999999999915295 0.0
50.0 -9.999999999923459 0.0
50.0 -13.99999999993163 0.0
50.0 -17.99999999994331 0.0
50.0 -21.99999999995853 0.0
50.0 -25.99999999997376 0.0
50.0 -29.99999999998899 0.0
50.0 -33.99999999999586 0.0
50.0 -37.9999999999969 0.0
50.0 -41.99999999999793 0.0
50.0 -45.99999999999896 0.0
45.99999999999896 -50.0 0.0
41.9999999999979 -50.0 0.0
37.99999999999686 -50.0 0.0
33.99999999999581 -50.0 0.0
30.00000000000059 -50.0 0.0
26.00000000001376 -50.0 0.0
22.00000000002693 -50.0 0.0
18.0000000000401 -50.0 0.0
14.00000000005324 -50.0 0.0
10.0000000000664 -50.0 0.0
6.000000000079542 -50.0 0.0
2.000000000092656 -50.0 0.0
-1.999999999906121 -50.0 0.0
-5.999999999915295 -50.0 0.0
-9.999999999923459 -50.0 0.0
-13.99999999993163 -50.0 0.0
-17.99999999994331 -50.0 0.0
-21.99999999995853 -50.0 0.0
-25.99999999997376 -50.0 0.0
-29.99999999998899 -50.0 0.0
-33.99999999999586 -50.0 0.0
-37.9999999999969 -50.0 0.0
-41.99999999999793 -50.0 0.0
-45.99999999999896 -50.0 0.0
-50.0 -45.99999999999896 0.0
-50.0 -41.9999999999979 0.0
-50.0 -37.99999999999686 0.0
-50.0 -33.99999999999581 0.0
-50.0 -30.00000000000059 0.0
-50.0 -26.00000000001376 0.0
-50.0 -22.00000000002693 0.0
-50.0 -18.0000000000401 0.0
-50.0 -14.00000000005324 0.0
-50.0 -10.0000000000664 0.0
-50.0 -6.000000000079542 0.0
-50.0 -2.000000000092656 0.0
-50.0 1.999999999906121 0.0
-50.0 5.999999999915295 0.0
-50.0 9.999999999923459 0.0
-50.0 13.99999999993163 0.0
-50.0 17.99999999994331 0.0
-50.0 21.99999999995853 0.0
-50.0 25.99999999997376 0.0
-50.0 29.99999999998899 0.0
-50.0 33.99999999999586 0.0
-50.0 37.9999999999969 0.0
-50.0 41.99999999999793 0.0
-50.0 45.99999999999896 0.0
-3.901806440288044 19.61570560807148 0.0
-7.653668647265455 18.47759065024079 0.0
-11.11140466035381 16.62939224607645 0.0
-14.14213562369474 14.14213562376717 0.0
-16.62939224601915 11.11140466043957 0.0
-18.47759065020115 7.653668647361153 0.0
-19.61570560805066 3.901806440392695 0.0
-20.0 7.776568614319829e-11 0.0
-19.6157056080774 -3.901806440258285 0.0
-18.47759065024524 -7.653668647254714 0.0
-16.62939224607186 -11.11140466036069 0.0
-14.14213562374694 -14.14213562371497 0.0
-11.11140466040043 -16.6293922460453 0.0
-7.65366864729932 -18.47759065022676 0.0
-3.90180644030583 -19.61570560806794 0.0
3.901806440288044 -19.61570560807148 0.0
7.653668647265455 -18.47759065024079 0.0
11.11140466035381 -16.62939224607645 0.0
14.14213562369474 -14.14213562376717 0.0
16.62939224601915 -11.11140466043957 0.0
18.47759065020115 -7.653668647361153 0.0
19.61570560805066 -3.901806440392695 0.0
20.0 -7.776568614319829e-11 0.0
19.6157056080774 3.901806440258285 0.0
18.47759065024524 7.653668647254714 0.0
16.62939224607186 11.11140466036069 0.0
14.14213562374694 14.14213562371497 0.0
11.11140466040043 16.6293922460453 0.0
7.65366864729932 18.47759065022676 0.0
3.90180644030583 19.61570560806794 0.0
21.0349885606842 -31.33291989490623 0.0
-21.92213524993364 32.47129740082516 0.0
-32.94195718131923 -21.14859496421213 0.0
32.48407655338185 21.92361233001349 0.0
-31.42766785017118 20.52973637256061 0.0
31.34269999426618 -20.843591133012 0.0
-20.66850481250735 -31.44486891594184 0.0
20.0281921064395 31.55415036089927 0.0
-18.67233805424752 42.50512532845049 0.0
18.19374025937458 -41.3023818091193 0.0
-42.17227278268256 -16.24076058910855 0.0
42.33829241096302 18.38562740073045 0.0
-40.86321105291192 18.22045265123251 0.0
-19.09931494913455 -40.64436380017196 0.0
-13.30478786335714 35.15565346988954 0.0
13.36569963208577 -33.83771726345368 0.0
-35.00763648785878 -13.66986120776997 0.0
35.15137232365157 13.29896341749408 0.0
-35.91973878086461 15.7257524773399 0.0
35.68134262944334 -13.50523986115313 0.0
14.28764867624587 35.97175823727987 0.0
-13.25608024279581 -36.09807581453354 0.0
-3.43573809733963 36.46130396748957 0.0
35.94387149962209 3.283015085636099 0.0
-35.62528452942622 -38.11661102564214 0.0
-38.61144023634591 34.81445789116533 0.0
34.36510053755555 38.72526495721833 0.0
38.75250588014823 -36.60167160487691 0.0
-40.57866978399257 46.81464340686621 0.0
45.20714492860375 -46.49369314478449 0.0
-34.56961509198562 -30.09715433458693 0.0
28.89989496625516 -35.30943539832101 0.0
35.24685681111853 -28.36472795070014 0.0
-30.34643278536468 34.20824456163002 0.0
34.03674534806063 30.31422029262094 0.0
-28.98189249145605 -10.98912622604279 0.0
25.41109985201274 -43.16931712699911 0.0
-26.597795920339 42.20147207521702 0.0
41.32669930959985 25.54113667098549 0.0
-22.48882370483756 -40.46175611878148 0.0
-18.0669898619053 25.26632201893649 0.0
17.72813917294362 -23.64712901441006 0.0
23.72778775552051 -17.64338066683542 0.0
-22.77443519795011 17.31221796259062 0.0
-25.07450847978108 -17.78314326524689 0.0
25.28898803843497 18.0556593023152 0.0
-17.71437862979588 -23.80397494215774 0.0
17.65719024624709 23.77463017495757 0.0
-27.9747090463393 -35.48993805662332 0.0
-35.40621929961179 27.30862593778066 0.0
26.16468943600576 -25.93382240574992 0.0
-26.50488120041251 25.78703828377619 0.0
-25.97573520979492 -26.47925882668211 0.0
25.80354875442789 26.4894138501519 0.0
-42.69565153438871 -35.45658735479477 0.0
27.18760823652676 35.38729571427982 0.0
41.88190235801823 34.45418445087055 0.0
-34.6954444584546 41.95187196559198 0.0
27.48629807742796 43.2394635414067 0.0
-43.21551196682957 27.63698140879208 0.0
43.40873777236504 -29.7149531370159 0.0
0.03902805686112204 25.50793362079343 0.0
26.49058815765176 0.4508521119359422 0.0
-27.16496611088848 -0.3998490888626399 0.0
-13.90465237569755 42.85919552680384 0.0
11.88268567144881 -43.5135427466366 0.0
-43.04762412693207 -13.58015228415966 0.0
42.8552257871967 13.9000399701175 0.0
43.84814664488243 -13.00404812910894 0.0
-43.89144862605731 12.87407331471758 0.0
-13.51069816788382 -43.5843256978244 0.0
13.05276926181895 43.88413546700496 0.0
43.47454277746057 -4.273927059036473 0.0
4.251839695595125 -43.00296293389271 0.0
-3.677127186826619 42.47072306863843 0.0
-42.57048792093359 -4.104201340196073 0.0
42.23487267792431 4.555512209557088 0.0
1.403550233453511 38.06263322058061 0.0
-28.6840696329963 -43.9094240394531 0.0
33.45783844263915 -43.62753908831294 0.0
46.33332628542988 -37.22257550074718 0.0
-46.58186236091294 35.08454843805947 0.0
-36.97468536493553 -45.693350813237 0.0
-41.50382447786544 42.97499305120035 0.0
-19.37061511912771 38.0783770016086 0.0
20.62296912632873 -38.16205147245761 0.0
-39.43229634248945 20.8134107432894 0.0
38.03064832695853 19.30833920884766 0.0
-20.71607715948846 -38.35175377766666 0.0
20.12189638536551 40.28938809992449 0.0
-41.03453967019605 -39.37510093269113 0.0
-46.42354308684152 43.6290998046874 0.0
-32.92916635725854 17.48596688573752 0.0
33.39922705361964 -17.56142203091263 0.0
-17.51123177642824 -33.46247860523317 0.0
16.29579410043273 32.3606547707406 0.0
-16.93738969355763 35.11727165207721 0.0
17.66368300133982 -33.38345136950765 0.0
35.09735848955847 16.90917182891173 0.0
-31.95048704757514 -16.86533364453098 0.0
41.12700327893752 -46.82287762733851 0.0
46.76974310941768 -41.50919855609006 0.0
19.2957726357979 -45.77701341558947 0.0
-45.76103885556889 -20.35867523002106 0.0
46.35337201291616 20.17070680000077 0.0
-46.70307824580135 19.91031570263512 0.0
-20.22689438772374 -46.69049767040066 0.0
19.89010420255736 46.694342063494 0.0
-41.32201878705205 -43.02276791727626 0.0
42.55326811187462 -43.1237758300644 0.0
40.75109930525767 42.8781751402188 0.0
-44.64664607221794 -40.31474560117277 0.0
-9.48349620752917 34.75512027243715 0.0
8.839568714324972 -36.26944765178768 0.0
34.7531496671939 9.48137247453693 0.0
-35.79167376164647 -9.47755618328256 0.0
16.77397813178351 -37.05172633854437 0.0
-37.99817303550739 17.61249595904635 0.0
37.17101194375822 -17.66060549259279 0.0
-17.56397712116187 -37.24041616734706 0.0
-40.87405509507679 -46.63739324906918 0.0
-36.49599937835107 8.108151523774188 0.0
36.30113923803823 -8.41251196005289 0.0
-7.862078692618412 -36.10177033464163 0.0
8.387693823454779 36.44673844565912 0.0
-46.86026167424509 -36.33176564404296 0.0
-47.84280426237672 -40.10656090758755 0.0
-24.2845560941761 10.04357796342171 0.0
24.45065917299803 -10.63823576451899 0.0
10.67341336290341 25.03669293607638 0.0
-10.66487524635786 -24.46785092437751 0.0
-9.442240815741325 24.5716331986801 0.0
10.55599485582231 -25.14245433446974 0.0
-25.4176844222611 -9.602754668773738 0.0
24.57370499155401 9.440224709866296 0.0
31.7775279301888 -39.86443256499796 0.0
-28.74292279463252 -19.72043452254821 0.0
-19.91350375568665 28.7759248820648 0.0
28.78440433333324 19.90267071306655 0.0
[...]
POINT_DATA 682
VECTORS Displacement float
-0.5 0.0 0.0
0.5 8.815041436344587e-05 0.0
0.5 -0.17377589384966646 0.0
-0.5 -0.1738823074783915 0.0
-4.9999736243041346e-05 -0.257718173518062 0.0
0.001309849931015878 0.08364181935855651 0.0
-0.4519865514873629 -0.1756123465683301 0.0
-0.40419423309802227 -0.18042804205679158 0.0
-0.35685566255083595 -0.18855628693869966 0.0
-0.310101007405006 -0.20017711796072266 0.0
-0.26433697851578386 -0.21468506594222247 0.0
-0.2204765931651904 -0.23157863433096812 0.0
-0.1786312629608174 -0.25048590610130317 0.0
-0.1395894200724141 -0.27011184744500294 0.0
-0.10376945945716838 -0.2889791920109025 0.0
-0.07110661921920686 -0.3051216461091733 0.0
-0.04176188269735003 -0.3174405351474713 0.0
-0.0136056995458804 -0.3237265602816916 0.0
0.013851413239954913 -0.32381358490767653 0.0
0.04135444391457485 -0.31755570559396346 0.0
0.07120484575719364 -0.3056381233687312 0.0
0.10353533425652023 -0.2888025288631353 0.0
0.13938837271880772 -0.2701049914356561 0.0
0.1785413455330854 -0.2503492359196891 0.0
0.2202867525118415 -0.23166638291131633 0.0
0.2643407260824031 -0.2144697050693478 0.0
0.31018747935915786 -0.20019655144008866 0.0
0.3571222265168566 -0.18898335239224515 0.0
0.4041047079629781 -0.18073216804232844 0.0
0.4518703912983611 -0.17580072318446338 0.0
0.5 -0.16008823397414076 0.0
0.5 -0.14699812762361544 0.0
0.5 -0.13450159850189258 0.0
0.5 -0.12256395215089297 0.0
0.5 -0.11161817925691106 0.0
0.5 -0.10191091522743671 0.0
0.5 -0.0943095676440712 0.0
0.5 -0.08842530662645648 0.0
0.5 -0.0845086653231084 0.0
0.5 -0.08321892854012558 0.0
0.5 -0.08389658589578866 0.0
0.5 -0.08566490504119824 0.0
0.5 -0.08815503178515698 0.0
0.5 -0.08993853657230079 0.0
0.5 -0.09011765734964622 0.0
0.5 -0.08820635441687229 0.0
0.5 -0.08527697254855958 0.0
0.5 -0.07958738225752421 0.0
0.5 -0.07179130367912527 0.0
0.5 -0.062135744731569305 0.0
0.5 -0.05154118640208696 0.0
0.5 -0.03934408691841796 0.0
0.5 -0.02641265042374532 0.0
0.5 -0.013951740784246736 0.0
0.45178278694514673 0.0019735087614991542 0.0
0.4043176495979638 0.0068445552316637945 0.0
0.3569943911556072 0.01489498018126845 0.0
0.3100490381480565 0.026438400853749034 0.0
0.2643475846878507 0.04088600733561839 0.0
0.22038159607315289 0.05795316580919557 0.0
0.1786054641861857 0.07675642070937751 0.0
0.13956220526064064 0.0961755611302085 0.0
0.10372514902516408 0.11527662748049376 0.0
0.07119342366651221 0.13155726508689114 0.0
0.04133815408495322 0.1435970596186249 0.0
0.013296647459009003 0.150423662398646 0.0
-0.013732467541602624 0.15028769651937998 0.0
-0.04125969700506747 0.14372282476578285 0.0
-0.07093114885718246 0.13154878717717092 0.0
-0.10357222844470129 0.11516158842838067 0.0
-0.1394179436691054 0.09636243851917815 0.0
-0.17849539699679415 0.07668528301412231 0.0
-0.2202254357887447 0.05793084037191141 0.0
-0.2643569827431438 0.04087323561586659 0.0
-0.31024485174286603 0.026308371895117658 0.0
-0.35670620800776986 0.01512647073493138 0.0
-0.404192786631141 0.006941622307708923 0.0
-0.451699538004856 0.0019403450001736432 0.0
-0.5 -0.013689376914848062 0.0
-0.5 -0.026835017038865556 0.0
-0.5 -0.039368431119696276 0.0
-0.5 -0.051298630802956935 0.0
-0.5 -0.0622302906472572 0.0
-0.5 -0.07164116853375137 0.0
-0.5 -0.07956084554956683 0.0
-0.5 -0.08558641776462014 0.0
-0.5 -0.0890995127969193 0.0
-0.5 -0.09042486331641536 0.0
-0.5 -0.08997332160238214 0.0
-0.5 -0.08824033883784274 0.0
-0.5 -0.08586661911196085 0.0
-0.5 -0.08380710248441046 0.0
-0.5 -0.08330102230639129 0.0
-0.5 -0.08479290792641513 0.0
-0.5 -0.08828766884100277 0.0
-0.5 -0.09408422901459666 0.0
-0.5 -0.10203616106770332 0.0
-0.5 -0.11189825419105928 0.0
-0.5 -0.12269524024420043 0.0
-0.5 -0.13411891243731985 0.0
-0.5 -0.1469112284986443 0.0
-0.5 -0.16004835467242215 0.0
-0.09438270153405401 -0.25279463574155 0.0
-0.18521535605479045 -0.23584009697416672 0.0
-0.261122126225056 -0.21293084414083227 0.0
-0.33041180849579316 -0.18836993878462804 0.0
-0.3841623758024117 -0.16241004254916247 0.0
-0.4231911700537109 -0.13644233572849299 0.0
-0.4462223747575589 -0.11097861977569057 0.0
-0.45388321800665576 -0.08749144281287143 0.0
-0.44638724184775924 -0.06225941363689584 0.0
-0.423203759218394 -0.036715773892668925 0.0
-0.38486478262998747 -0.012079640894918309 0.0
-0.3300116979036983 0.015211879035932836 0.0
-0.26149788832133997 0.040820837204505515 0.0
-0.18340513445113762 0.06234931439219164 0.0
-0.09523568895968913 0.07805992252918 0.0
0.09411538357897259 0.07873977361201046 0.0
0.18387377786746714 0.06181325849510148 0.0
0.26145152538367 0.040454571567337866 0.0
0.3297064494870143 0.01510813207074775 0.0
0.385224828181359 -0.01202338067272038 0.0
0.4230662729335343 -0.03775789337210189 0.0
0.44611662395462487 -0.06167684967145487 0.0
0.45371264016786117 -0.08600363859853674 0.0
0.4463355532496477 -0.11146949417429558 0.0
0.42297754195107445 -0.13708895436808446 0.0
0.3847944916651762 -0.16120811842748373 0.0
0.3304153344087398 -0.18870184559688327 0.0
0.26174703133691185 -0.2144722248004594 0.0
0.18441231517510512 -0.23570375920812803 0.0
0.09543186213489623 -0.25225320087066755 0.0
0.23029504597938347 0.019847803904719383 0.0
-0.2351969880634237 -0.19272367977817184 0.0
-0.388071787473825 -0.0652281130998241 0.0
0.38081632742582955 -0.11194233136988574 0.0
-0.38007988580792823 -0.11028319647585162 0.0
0.3779557217758601 -0.06220709623953525 0.0
-0.2259698409021384 0.02234140867325831 0.0
0.21862357836116794 -0.19995505623196688 0.0
-0.17272200238047714 -0.24478476627992585 0.0
0.17124713475199047 0.06977610645204023 0.0
-0.460544082632423 -0.0857888807630201 0.0
0.4571654417683709 -0.09077313385942397 0.0
-0.44918919622913156 -0.09175474519351454 0.0
-0.1818647453994074 0.062896103837818 0.0
-0.13603047172632965 -0.25107723771415846 0.0
0.13980658104893348 0.07316596017252372 0.0
-0.433832126158598 -0.0837192178799913 0.0
0.4362041790691636 -0.08948727008238982 0.0
-0.43002978278391923 -0.09231418444892447 0.0
0.43779387857859875 -0.08448163726132465 0.0
0.14431837488436006 -0.24819943875621178 0.0
-0.1331500629772674 0.08062211352485203 0.0
-0.03394815241752634 -0.2933720695010419 0.0
0.46718919173757045 -0.08593507432996206 0.0
-0.35736783195159805 -0.0182695199952271 0.0
-0.39358879698974963 -0.1370090332555544 0.0
0.3432695313615044 -0.1612018736228562 0.0
0.39155873725705254 -0.03142752526233366 0.0
-0.39317835631966114 -0.1719200104012414 0.0
0.4461103630418725 -0.00971447059743964 0.0
-0.36749820738948413 -0.041765132857862666 0.0
0.2972889101209302 -0.004210531922238992 0.0
0.37902496707846106 -0.04904033792596844 0.0
-0.3150712179585295 -0.1598875487765693 0.0
0.36195528890459944 -0.13417185358010786 0.0
-0.42259656338765583 -0.07925557155382215 0.0
0.23876466705934132 0.03876426098727929 0.0
-0.2541349773571949 -0.20361712013760735 0.0
0.43563232782271116 -0.10583014456302664 0.0
-0.216748408831921 0.04437477323252662 0.0
-0.22912793509940665 -0.1871353568572226 0.0
0.23703476730587175 0.009288695336545711 0.0
0.3436654701040689 -0.047164536786138196 0.0
-0.340005980454975 -0.129339374184609 0.0
-0.352487975283954 -0.05249510543546743 0.0
0.35168440551263425 -0.12123370900748229 0.0
-0.23563074693091784 0.010055780312554679 0.0
0.23510218423527343 -0.18387984300489563 0.0
-0.2873435335879471 0.000498522732019864 0.0
-0.38354928321379844 -0.12101892672096265 0.0
0.30687108508787997 -0.0273314135746537 0.0
-0.3106396218028572 -0.14432060219106116 0.0
-0.3021965861503008 -0.024379863987011238 0.0
0.30039507108966385 -0.1501400894344817 0.0
-0.4312389713586244 -0.04211362192989644 0.0
0.27966764660021787 -0.17736920087332186 0.0
0.42499281249990384 -0.12996526829023952 0.0
-0.33941475136206783 -0.1706984185845305 0.0
0.26027034991362524 -0.20299880462008452 0.0
-0.44674545362523094 -0.10909687908258674 0.0
0.44508121521675365 -0.05931249974410429 0.0
0.0009176501744904242 -0.2795249062771195 0.0
0.45961605130218963 -0.08718450419072919 0.0
-0.45994265983053156 -0.08656944977891962 0.0
-0.12541609179152893 -0.2703171846334855 0.0
0.10479670955138992 0.10767741081460765 0.0
-0.46990838610266167 -0.0883294426754107 0.0
0.46841913794459694 -0.08557039574052194 0.0
0.4743579852465761 -0.0890341677813215 0.0
-0.474701814300426 -0.08454481291987923 0.0
-0.11986461542122585 0.10041130409685473 0.0
0.11481246416483185 -0.27732792527767064 0.0
0.48274844813162066 -0.08900427315454215 0.0
0.03729080325898468 0.13128379211208063 0.0
-0.03240405349697142 -0.30557431602739715 0.0
-0.4810745910441725 -0.08919408391876825 0.0
0.47965044698669573 -0.08454764996442088 0.0
0.013397421409099044 -0.2983924565821676 0.0
-0.2707203700386769 0.0260845059837714 0.0
0.322141932155395 0.006672593209771519 0.0
0.4643799617906491 -0.04044199321243203 0.0
-0.4681389135256279 -0.12675066731302284 0.0
-0.35519793536144634 0.0028504454916261153 0.0
-0.40936766440716976 -0.1572078474543875 0.0
-0.19155561288281578 -0.2268684341451839 0.0
0.20413515239229857 0.046582035465011294 0.0
-0.4336425808766848 -0.09765523134593523 0.0
0.4293866424772439 -0.09631119604798564 0.0
-0.20443612318607948 0.046693555866021544 0.0
0.1932021881291415 -0.2299260642265564 0.0
-0.4097053427443599 -0.027024633774255694 0.0
-0.4613069776441625 -0.15328326949565965 0.0
-0.4049572288827079 -0.09982065668889421 0.0
0.40796917678912903 -0.07486346919713863 0.0
-0.18501164731457542 0.04808754615831848 0.0
0.17568861818877315 -0.22489922915549898 0.0
-0.174271958388255 -0.2305861076926862 0.0
0.1868976726052572 0.04672419939887846 0.0
0.420694915983742 -0.09517904364412717 0.0
-0.40292346259027007 -0.07398877279189747 0.0
0.3993437312234759 -0.0027505711642198736 0.0
0.46631953036849977 -0.027529238310506465 0.0
0.16887818213981673 0.07759769773721213 0.0
-0.47440908565813006 -0.08165964415399611 0.0
0.4782082390311676 -0.09163379264638602 0.0
-0.48046663642538956 -0.09122724160200363 0.0
-0.1745954774830385 0.07567499687331752 0.0
0.1712383330278155 -0.2511109686945445 0.0
-0.40727078126556937 -0.015952773414999854 0.0
0.42024631227638476 -0.017727263648341145 0.0
0.4013980256752208 -0.15863271199611784 0.0
-0.44524723087183143 -0.029469021950937424 0.0
-0.09706708758248589 -0.26934037838726094 0.0
0.08782856011203587 0.10251499397315411 0.0
0.44923991741380637 -0.0866631066975051 0.0
-0.45257872294077806 -0.08772810270144832 0.0
0.16745106503131846 0.06414656050075346 0.0
-0.43457836776197634 -0.09308681091233405 0.0
0.42946540137427847 -0.07962178118084075 0.0
-0.17500106893317133 0.060364031744407354 0.0
-0.3966452389951156 -0.0027512847552532333 0.0
-0.45897964312098544 -0.08531112280140388 0.0
0.45773417869198996 -0.08846690531066807 0.0
-0.07817685118810164 0.1060082909509715 0.0
0.08318348821030948 -0.27809872829357296 0.0
-0.4701164242909009 -0.04354826360264182 0.0
-0.4779961532778971 -0.03232982753193119 0.0
-0.41404861957458294 -0.10503386002135615 0.0
0.4094444700134371 -0.06831621062874381 0.0
0.1455129947999616 -0.23660279221143357 0.0
-0.14979370790144234 0.06130322928041702 0.0
-0.1342327665120114 -0.24250559068587044 0.0
0.14371683716992867 0.06378468946558827 0.0
-0.42065533166197205 -0.07319897429466792 0.0
0.41939958856231935 -0.10283431346135148 0.0
0.3140991977592761 0.00015612687795535574 0.0
-0.3653550910676628 -0.0588115719898596 0.0
-0.229337623092412 -0.1898107247501911 0.0
0.36402364071696186 -0.11552442404726046 0.0
0.34857076707370904 -0.021008670924258586 0.0
-0.318925034963776 -0.03669382838956584 0.0
0.3183384285137093 -0.13710554452554122 0.0
-0.2735107040398764 -0.16177345794005865 0.0
0.42809798248725345 -0.11762443256587947 0.0
-0.2953979643292786 -0.18431993359805238 0.0
-0.2705214267427218 -0.010157146663945068 0.0
0.27406496199510316 -0.012320463709596797 0.0
0.2696995490375615 -0.16367485847639385 0.0
0.3190760840358807 -0.037058938746960486 0.0
0.2983930816504665 -0.14834026836642233 0.0
-0.28561805873266916 -0.15566472221508673 0.0
-0.2988293853358059 -0.025285767748570567 0.0
-0.32500962513312237 -0.16577993608333766 0.0
-0.3271221246349662 -0.13229022256064568 0.0
-0.44572235629538903 -0.09277235493834483 0.0
0.4358903526199369 -0.07980014464437452 0.0
0.07060885385819897 -0.269879039919403 0.0
-0.09239375556648637 0.08785470034261365 0.0
0.08183124134631146 0.0919152336528349 0.0
-0.06883496026551518 -0.27024921544536495 0.0
0.4481120709883153 -0.09221764705314522 0.0
-0.4473897523247502 -0.08057718158973567 0.0
0.38363422319459367 -0.04057301909633969 0.0
0.29281971195682627 -0.02150250840847528 0.0
-0.3864504547166798 -0.06791361099224148 0.0
-0.4131374374996088 -0.06848283785106132 0.0
-0.17601059617632223 -0.22021086530541706 0.0
0.39641167665297933 -0.10182049307122708 0.0
0.28304811246854944 0.020011606839675504 0.0
0.34176875717317473 -0.029720105166443918 0.0
0.30322798460521866 -0.017802114269225084 0.0
-0.4053815669773006 -0.057216702255633994 0.0
-0.23276799309891064 -0.20253793091928976 0.0
0.41994491084798025 -0.04736290262836205 0.0
0.4085563226064604 -0.10635438936110574 0.0
0.34117304641464546 -0.038738395179987326 0.0
-0.4388702753030956 -0.060640242422021255 0.0
0.2163342286015375 0.022882924143305627 0.0
-0.32208818799918676 -0.009484763831060228 0.0
0.3936621291391686 -0.13024163408476452 0.0
0.3719034221112913 -0.06225380932052889 0.0
-0.2136647904002199 0.024625666020383713 0.0
-0.3209850070404239 0.0012425481999520536 0.0
-0.33373446298158554 -0.03414718616464579 0.0
0.26774619557767193 0.018731982374942 0.0
-0.37703180773876954 -0.10912260930541055 0.0
-0.31103096020749077 -0.15187542503022133 0.0
-0.2942884563384917 -0.012596779171175436 0.0
0.4000722764062627 -0.1177905968562428 0.0
0.21108208276622162 -0.19906127477301463 0.0
-0.2762762603667684 -0.18453698644880148 0.0
-0.3467160191091141 -0.1317820127668077 0.0
0.29041980625120933 -0.16287814692709393 0.0
0.41411064377499146 -0.05570460028663957 0.0
0.33093385104834966 -0.140905978978949 0.0
0.4744975343646946 -0.07689905408627244 0.0
0.32083486871862377 -0.15427890884813003 0.0
-0.28331196531425973 0.011735926425909203 0.0
-0.349659249360812 -0.1389515794300168 0.0
-0.36159159620526304 -0.02936240254230371 0.0
-0.4209960576762118 -0.12198094925474667 0.0
-0.3274670356661908 -0.022053438515774012 0.0
-0.34836794962555584 -0.02418218526160183 0.0
-0.2614987354291334 -0.19249362187942623 0.0
0.3484466826247595 -0.15011893845023905 0.0
-0.47648842196567315 -0.08386228099079213 0.0
0.4804233468503204 -0.08997189536949997 0.0
0.07818470293468907 -0.29175477132450134 0.0
-0.08224082682148125 0.11859850549715878 0.0
-0.27291391157566547 -0.17616031198831436 0.0
-0.36559871827849083 -0.15288819489936542 0.0
-0.22173761544080547 0.05097200992422266 0.0
0.37167539205084466 -0.1215189197585684 0.0
0.30254142558026986 -0.18081083341774337 0.0
-0.4046813166910784 -0.04629000610177481 0.0
-0.38678593531971084 -0.1287108510940239 0.0
-0.3748495241392636 -0.053568171899816476 0.0
-0.26976204179983015 -0.16920717713351469 0.0
0.261701527898182 0.006356264780328895 0.0
-0.46255281034269236 -0.0555457428628715 0.0
0.1835657869890641 0.041055388565229035 0.0
0.24482355949252146 0.023132956504593776 0.0
0.3447449267045517 -0.127646167569832 0.0
0.46550014338478213 -0.10188605142978893 0.0
-0.355866454907983 -0.1462720220127098 0.0
0.3904253930747292 -0.10853739089707605 0.0
-0.17689438601860577 -0.21879060521715535 0.0
-0.3930194612448535 -0.06837749731566384 0.0
-0.3464029976164093 -0.046903157462192605 0.0
0.31109500591512257 -0.16802723704987516 0.0
0.3849930503207299 -0.14295858816507523 0.0
0.3531175947863809 -0.14739171751975164 0.0
0.3593967363061162 -0.013356920444951223 0.0
0.38760783235681057 -0.06724939858406762 0.0
-0.18191765072188318 0.04196714213238328 0.0
0.18843493045515192 -0.211702699424577 0.0
-0.39028812371027255 -0.10608255928727886 0.0
-0.41611168295588347 -0.11456252535388396 0.0
-0.4536625198856282 -0.11820753322642369 0.0
0.2727970539507154 -0.1895954057186025 0.0
-0.4729762049379938 -0.06695506520852922 0.0
-0.47504300622238294 -0.08584864713449897 0.0
0.2901446484255623 -0.19331206418518818 0.0
0.06870816589204773 0.12274784459001778 0.0
-0.08041347327023933 -0.2923605178646826 0.0
-0.4785421170723908 -0.09037966238276486 0.0
0.47906522826316333 -0.08347007359724104 0.0
0.46476826224143036 -0.11880366261165945 0.0
-0.46787098795178717 -0.0986755922754668 0.0
0.09700166039833641 0.10520130336476513 0.0
-0.46620059975330874 -0.0890427001915503 0.0
0.37442431652973773 -0.05572311770868405 0.0
-0.46234762011462044 -0.08483547803712403 0.0
0.46931109720018405 -0.08960124747955926 0.0
0.10821125449467517 -0.272148347953684 0.0
-0.10163808692395351 0.10350143057371533 0.0
0.15992151631017665 -0.25318009025754334 0.0
0.21554122928448052 -0.22716723908490097 0.0
-0.2561888134863476 0.009983607094196588 0.0
-0.3916343665969461 -0.03143565947041958 0.0
0.45700919580034804 -0.05017958757340128 0.0
0.3305931831588697 -0.17715350926745863 0.0
0.42765305895940536 -0.16566268881986812 0.0
0.21434737326431494 0.04731519776229035 0.0
-0.13963694984913047 -0.2676488532333942 0.0
0.47680391192117727 -0.08715544202553603 0.0
0.26419878112300244 -0.002351485759424228 0.0
0.45890984803174045 -0.09689447276494488 0.0
-0.2158444301408728 -0.22291887887287307 0.0
-0.3782350461328665 -0.11590647091484417 0.0
-0.31178530573525015 0.013796475748585977 0.0
-0.10100555627282978 -0.28745450007152845 0.0
0.1032405981653239 0.11323694559620247 0.0
-0.48586736406963965 -0.0898682412307596 0.0
0.48536688397074834 -0.08386284051214239 0.0
-0.4897561819954081 -0.08414014785198795 0.0
0.10004240372005758 -0.2891100415277871 0.0
-0.10000619319717308 0.1147495960225888 0.0
-0.035725389340088474 -0.2979423065525439 0.0
-0.4715639684072484 -0.08833550980776483 0.0
0.2470584072826509 -0.18841588962326863 0.0
-0.25926770897446244 0.0008324612288868648 0.0
0.40950499747675795 -0.06418073886694728 0.0
0.36867486422017515 -0.004067427302234748 0.0
0.34753958684206426 -0.048295479738264625 0.0
-0.4370192381507072 -0.0845354126033525 0.0
0.25520580446065544 -0.17656077617684604 0.0
0.4435698038671655 -0.07020673815456879 0.0
-0.24402417849400268 0.02532248684102477 0.0
0.13494305668443998 0.09339750182013609 0.0
-0.3505827807211761 -0.12380672894931298 0.0
-0.029067714295184625 -0.28738566713433167 0.0
0.03206696264957713 0.11235632988234584 0.0
0.46215040086223264 -0.08649577537438904 0.0
-0.4640744313764959 -0.08726779731691944 0.0
0.4606008683699474 -0.08758232584859671 0.0
-0.4605199052729212 -0.08605971505001646 0.0
0.05569906875624619 -0.2830175203942775 0.0
-0.038886761839502064 0.11314908831915266 0.0
-0.23965477747104905 0.035755994090718925 0.0
-0.21034428745312944 -0.220610573275336 0.0
-0.40967456262429436 -0.10776443634283493 0.0
0.4359540227205001 -0.09819858986024138 0.0
-0.37718318126720796 -0.1589817621072508 0.0
-0.42821802919615637 -0.13030472379008048 0.0
0.23551825695086182 -0.2027972913720184 0.0
-0.4776709840869902 -0.08696404829759782 0.0
0.032670734298130305 0.09831660508804908 0.0
-0.04896479040242921 -0.2681699471939814 0.0
-0.4540612689959737 -0.078426501704947 0.0
0.45393062279490465 -0.09552716838489062 0.0
0.45617727184683765 -0.08226776644921431 0.0
-0.456025840909458 -0.09196328929111192 0.0
0.04507920038671468 -0.2689203216613474 0.0
-0.04076874263787694 0.09587121531363281 0.0
-0.443335635497867 -0.0784031640445179 0.0
0.21017166320993044 0.057088610181925965 0.0
-0.042711384711386996 -0.3112530322759818 0.0
0.041203363681391963 0.1377649367942878 0.0
0.49057966781157675 -0.08406055447295155 0.0
-0.49086581023559517 -0.08984692427500632 0.0