# vtk DataFile Version 3.0
Some data
ASCII
DATASET UNSTRUCTURED_GRID
POINTS 4221 float
0.0 -10.0 0.0
0.5 -10.0 0.0
1.0 -10.0 0.0
1.5 -10.0 0.0
2.0 -10.0 0.0
2.5 -10.0 0.0
3.0 -10.0 0.0
3.5 -10.0 0.0
4.0 -10.0 0.0
4.5 -10.0 0.0
5.0 -10.0 0.0
5.5 -10.0 0.0
6.0 -10.0 0.0
6.5 -10.0 0.0
7.0 -10.0 0.0
7.5 -10.0 0.0
8.0 -10.0 0.0
8.5 -10.0 0.0
9.0 -10.0 0.0
9.5 -10.0 0.0
10.0 -10.0 0.0
10.5 -10.0 0.0
11.0 -10.0 0.0
11.5 -10.0 0.0
12.0 -10.0 0.0
12.5 -10.0 0.0
13.0 -10.0 0.0
13.5 -10.0 0.0
14.0 -10.0 0.0
14.5 -10.0 0.0
15.0 -10.0 0.0
15.5 -10.0 0.0
16.0 -10.0 0.0
16.5 -10.0 0.0
17.0 -10.0 0.0
17.5 -10.0 0.0
18.0 -10.0 0.0
18.5 -10.0 0.0
19.0 -10.0 0.0
19.5 -10.0 0.0
20.0 -10.0 0.0
20.5 -10.0 0.0
21.0 -10.0 0.0
21.5 -10.0 0.0
22.0 -10.0 0.0
22.5 -10.0 0.0
23.0 -10.0 0.0
23.5 -10.0 0.0
24.0 -10.0 0.0
24.5 -10.0 0.0
25.0 -10.0 0.0
25.5 -10.0 0.0
26.0 -10.0 0.0
26.5 -10.0 0.0
27.0 -10.0 0.0
27.5 -10.0 0.0
28.0 -10.0 0.0
28.5 -10.0 0.0
29.0 -10.0 0.0
29.5 -10.0 0.0
30.0 -10.0 0.0
30.5 -10.0 0.0
31.0 -10.0 0.0
31.5 -10.0 0.0
32.0 -10.0 0.0
32.5 -10.0 0.0
33.0 -10.0 0.0
33.5 -10.0 0.0
34.0 -10.0 0.0
34.5 -10.0 0.0
35.0 -10.0 0.0
35.5 -10.0 0.0
36.0 -10.0 0.0
36.5 -10.0 0.0
37.0 -10.0 0.0
37.5 -10.0 0.0
38.0 -10.0 0.0
38.5 -10.0 0.0
39.0 -10.0 0.0
39.5 -10.0 0.0
40.0 -10.0 0.0
40.5 -10.0 0.0
41.0 -10.0 0.0
41.5 -10.0 0.0
42.0 -10.0 0.0
42.5 -10.0 0.0
43.0 -10.0 0.0
43.5 -10.0 0.0
44.0 -10.0 0.0
44.5 -10.0 0.0
45.0 -10.0 0.0
45.5 -10.0 0.0
46.0 -10.0 0.0
46.5 -10.0 0.0
47.0 -10.0 0.0
47.5 -10.0 0.0
48.0 -10.0 0.0
48.5 -10.0 0.0
49.0 -10.0 0.0
49.5 -10.0 0.0
50.0 -10.0 0.0
50.5 -10.0 0.0
51.0 -10.0 0.0
51.5 -10.0 0.0
52.0 -10.0 0.0
52.5 -10.0 0.0
53.0 -10.0 0.0
53.5 -10.0 0.0
54.0 -10.0 0.0
54.5 -10.0 0.0
55.0 -10.0 0.0
55.5 -10.0 0.0
56.0 -10.0 0.0
56.5 -10.0 0.0
57.0 -10.0 0.0
57.5 -10.0 0.0
58.0 -10.0 0.0
58.5 -10.0 0.0
59.0 -10.0 0.0
59.5 -10.0 0.0
60.0 -10.0 0.0
60.5 -10.0 0.0
61.0 -10.0 0.0
61.5 -10.0 0.0
62.0 -10.0 0.0
62.5 -10.0 0.0
63.0 -10.0 0.0
63.5 -10.0 0.0
64.0 -10.0 0.0
64.5 -10.0 0.0
65.0 -10.0 0.0
65.5 -10.0 0.0
66.0 -10.0 0.0
66.5 -10.0 0.0
67.0 -10.0 0.0
67.5 -10.0 0.0
68.0 -10.0 0.0
68.5 -10.0 0.0
69.0 -10.0 0.0
69.5 -10.0 0.0
70.0 -10.0 0.0
70.5 -10.0 0.0
71.0 -10.0 0.0
71.5 -10.0 0.0
72.0 -10.0 0.0
72.5 -10.0 0.0
73.0 -10.0 0.0
73.5 -10.0 0.0
74.0 -10.0 0.0
74.5 -10.0 0.0
75.0 -10.0 0.0
75.5 -10.0 0.0
76.0 -10.0 0.0
76.5 -10.0 0.0
77.0 -10.0 0.0
77.5 -10.0 0.0
78.0 -10.0 0.0
78.5 -10.0 0.0
79.0 -10.0 0.0
79.5 -10.0 0.0
80.0 -10.0 0.0
80.5 -10.0 0.0
81.0 -10.0 0.0
81.5 -10.0 0.0
82.0 -10.0 0.0
82.5 -10.0 0.0
83.0 -10.0 0.0
83.5 -10.0 0.0
84.0 -10.0 0.0
84.5 -10.0 0.0
85.0 -10.0 0.0
85.5 -10.0 0.0
86.0 -10.0 0.0
86.5 -10.0 0.0
87.0 -10.0 0.0
87.5 -10.0 0.0
88.0 -10.0 0.0
88.5 -10.0 0.0
89.0 -10.0 0.0
89.5 -10.0 0.0
90.0 -10.0 0.0
90.5 -10.0 0.0
91.0 -10.0 0.0
91.5 -10.0 0.0
92.0 -10.0 0.0
92.5 -10.0 0.0
93.0 -10.0 0.0
93.5 -10.0 0.0
94.0 -10.0 0.0
94.5 -10.0 0.0
95.0 -10.0 0.0
95.5 -10.0 0.0
96.0 -10.0 0.0
96.5 -10.0 0.0
97.0 -10.0 0.0
97.5 -10.0 0.0
98.0 -10.0 0.0
98.5 -10.0 0.0
99.0 -10.0 0.0
99.5 -10.0 0.0
100.0 -10.0 0.0
0.0 -9.0 0.0
0.5 -9.0 0.0
1.0 -9.0 0.0
1.5 -9.0 0.0
2.0 -9.0 0.0
2.5 -9.0 0.0
3.0 -9.0 0.0
3.5 -9.0 0.0
4.0 -9.0 0.0
4.5 -9.0 0.0
5.0 -9.0 0.0
5.5 -9.0 0.0
6.0 -9.0 0.0
6.5 -9.0 0.0
7.0 -9.0 0.0
7.5 -9.0 0.0
8.0 -9.0 0.0
8.5 -9.0 0.0
9.0 -9.0 0.0
9.5 -9.0 0.0
10.0 -9.0 0.0
10.5 -9.0 0.0
11.0 -9.0 0.0
11.5 -9.0 0.0
12.0 -9.0 0.0
12.5 -9.0 0.0
13.0 -9.0 0.0
13.5 -9.0 0.0
14.0 -9.0 0.0
14.5 -9.0 0.0
15.0 -9.0 0.0
15.5 -9.0 0.0
16.0 -9.0 0.0
16.5 -9.0 0.0
17.0 -9.0 0.0
17.5 -9.0 0.0
18.0 -9.0 0.0
18.5 -9.0 0.0
19.0 -9.0 0.0
19.5 -9.0 0.0
20.0 -9.0 0.0
20.5 -9.0 0.0
21.0 -9.0 0.0
21.5 -9.0 0.0
22.0 -9.0 0.0
22.5 -9.0 0.0
23.0 -9.0 0.0
23.5 -9.0 0.0
24.0 -9.0 0.0
24.5 -9.0 0.0
25.0 -9.0 0.0
25.5 -9.0 0.0
26.0 -9.0 0.0
26.5 -9.0 0.0
27.0 -9.0 0.0
27.5 -9.0 0.0
28.0 -9.0 0.0
28.5 -9.0 0.0
29.0 -9.0 0.0
29.5 -9.0 0.0
30.0 -9.0 0.0
30.5 -9.0 0.0
31.0 -9.0 0.0
31.5 -9.0 0.0
32.0 -9.0 0.0
32.5 -9.0 0.0
33.0 -9.0 0.0
33.5 -9.0 0.0
34.0 -9.0 0.0
34.5 -9.0 0.0
35.0 -9.0 0.0
35.5 -9.0 0.0
36.0 -9.0 0.0
36.5 -9.0 0.0
37.0 -9.0 0.0
37.5 -9.0 0.0
38.0 -9.0 0.0
38.5 -9.0 0.0
39.0 -9.0 0.0
39.5 -9.0 0.0
40.0 -9.0 0.0
40.5 -9.0 0.0
41.0 -9.0 0.0
41.5 -9.0 0.0
42.0 -9.0 0.0
42.5 -9.0 0.0
43.0 -9.0 0.0
43.5 -9.0 0.0
44.0 -9.0 0.0
44.5 -9.0 0.0
45.0 -9.0 0.0
45.5 -9.0 0.0
46.0 -9.0 0.0
46.5 -9.0 0.0
47.0 -9.0 0.0
47.5 -9.0 0.0
48.0 -9.0 0.0
48.5 -9.0 0.0
49.0 -9.0 0.0
49.5 -9.0 0.0
50.0 -9.0 0.0
50.5 -9.0 0.0
51.0 -9.0 0.0
51.5 -9.0 0.0
52.0 -9.0 0.0
52.5 -9.0 0.0
53.0 -9.0 0.0
53.5 -9.0 0.0
54.0 -9.0 0.0
54.5 -9.0 0.0
55.0 -9.0 0.0
55.5 -9.0 0.0
56.0 -9.0 0.0
56.5 -9.0 0.0
57.0 -9.0 0.0
57.5 -9.0 0.0
58.0 -9.0 0.0
58.5 -9.0 0.0
59.0 -9.0 0.0
59.5 -9.0 0.0
60.0 -9.0 0.0
60.5 -9.0 0.0
61.0 -9.0 0.0
61.5 -9.0 0.0
62.0 -9.0 0.0
62.5 -9.0 0.0
63.0 -9.0 0.0
63.5 -9.0 0.0
64.0 -9.0 0.0
64.5 -9.0 0.0
65.0 -9.0 0.0
65.5 -9.0 0.0
66.0 -9.0 0.0
66.5 -9.0 0.0
67.0 -9.0 0.0
67.5 -9.0 0.0
68.0 -9.0 0.0
68.5 -9.0 0.0
69.0 -9.0 0.0
69.5 -9.0 0.0
70.0 -9.0 0.0
70.5 -9.0 0.0
71.0 -9.0 0.0
71.5 -9.0 0.0
72.0 -9.0 0.0
72.5 -9.0 0.0
73.0 -9.0 0.0
73.5 -9.0 0.0
74.0 -9.0 0.0
74.5 -9.0 0.0
75.0 -9.0 0.0
75.5 -9.0 0.0
76.0 -9.0 0.0
76.5 -9.0 0.0
77.0 -9.0 0.0
77.5 -9.0 0.0
78.0 -9.0 0.0
78.5 -9.0 0.0
79.0 -9.0 0.0
79.5 -9.0 0.0
80.0 -9.0 0.0
80.5 -9.0 0.0
81.0 -9.0 0.0
81.5 -9.0 0.0
82.0 -9.0 0.0
82.5 -9.0 0.0
83.0 -9.0 0.0
83.5 -9.0 0.0
84.0 -9.0 0.0
84.5 -9.0 0.0
85.0 -9.0 0.0
85.5 -9.0 0.0
86.0 -9.0 0.0
86.5 -9.0 0.0
87.0 -9.0 0.0
87.5 -9.0 0.0
88.0 -9.0 0.0
88.5 -9.0 0.0
89.0 -9.0 0.0
89.5 -9.0 0.0
90.0 -9.0 0.0
90.5 -9.0 0.0
91.0 -9.0 0.0
91.5 -9.0 0.0
92.0 -9.0 0.0
92.5 -9.0 0.0
93.0 -9.0 0.0
93.5 -9.0 0.0
94.0 -9.0 0.0
94.5 -9.0 0.0
95.0 -9.0 0.0
95.5 -9.0 0.0
96.0 -9.0 0.0
96.5 -9.0 0.0
97.0 -9.0 0.0
97.5 -9.0 0.0
98.0 -9.0 0.0
98.5 -9.0 0.0
99.0 -9.0 0.0
99.5 -9.0 0.0
100.0 -9.0 0.0
0.0 -8.0 0.0
0.5 -8.0 0.0
1.0 -8.0 0.0
1.5 -8.0 0.0
2.0 -8.0 0.0
2.5 -8.0 0.0
3.0 -8.0 0.0
3.5 -8.0 0.0
4.0 -8.0 0.0
4.5 -8.0 0.0
5.0 -8.0 0.0
5.5 -8.0 0.0
6.0 -8.0 0.0
6.5 -8.0 0.0
7.0 -8.0 0.0
7.5 -8.0 0.0
8.0 -8.0 0.0
8.5 -8.0 0.0
9.0 -8.0 0.0
9.5 -8.0 0.0
10.0 -8.0 0.0
10.5 -8.0 0.0
11.0 -8.0 0.0
11.5 -8.0 0.0
12.0 -8.0 0.0
12.5 -8.0 0.0
13.0 -8.0 0.0
13.5 -8.0 0.0
14.0 -8.0 0.0
14.5 -8.0 0.0
15.0 -8.0 0.0
15.5 -8.0 0.0
16.0 -8.0 0.0
16.5 -8.0 0.0
17.0 -8.0 0.0
17.5 -8.0 0.0
18.0 -8.0 0.0
18.5 -8.0 0.0
19.0 -8.0 0.0
19.5 -8.0 0.0
20.0 -8.0 0.0
20.5 -8.0 0.0
21.0 -8.0 0.0
21.5 -8.0 0.0
22.0 -8.0 0.0
22.5 -8.0 0.0
23.0 -8.0 0.0
23.5 -8.0 0.0
24.0 -8.0 0.0
24.5 -8.0 0.0
25.0 -8.0 0.0
25.5 -8.0 0.0
26.0 -8.0 0.0
26.5 -8.0 0.0
27.0 -8.0 0.0
27.5 -8.0 0.0
28.0 -8.0 0.0
28.5 -8.0 0.0
29.0 -8.0 0.0
29.5 -8.0 0.0
30.0 -8.0 0.0
30.5 -8.0 0.0
31.0 -8.0 0.0
31.5 -8.0 0.0
32.0 -8.0 0.0
32.5 -8.0 0.0
33.0 -8.0 0.0
33.5 -8.0 0.0
34.0 -8.0 0.0
34.5 -8.0 0.0
35.0 -8.0 0.0
35.5 -8.0 0.0
36.0 -8.0 0.0
36.5 -8.0 0.0
37.0 -8.0 0.0
37.5 -8.0 0.0
38.0 -8.0 0.0
38.5 -8.0 0.0
39.0 -8.0 0.0
39.5 -8.0 0.0
40.0 -8.0 0.0
40.5 -8.0 0.0
41.0 -8.0 0.0
41.5 -8.0 0.0
42.0 -8.0 0.0
42.5 -8.0 0.0
43.0 -8.0 0.0
43.5 -8.0 0.0
44.0 -8.0 0.0
44.5 -8.0 0.0
45.0 -8.0 0.0
45.5 -8.0 0.0
46.0 -8.0 0.0
46.5 -8.0 0.0
47.0 -8.0 0.0
47.5 -8.0 0.0
48.0 -8.0 0.0
48.5 -8.0 0.0
49.0 -8.0 0.0
49.5 -8.0 0.0
50.0 -8.0 0.0
50.5 -8.0 0.0
51.0 -8.0 0.0
51.5 -8.0 0.0
52.0 -8.0 0.0
52.5 -8.0 0.0
53.0 -8.0 0.0
53.5 -8.0 0.0
54.0 -8.0 0.0
54.5 -8.0 0.0
55.0 -8.0 0.0
55.5 -8.0 0.0
56.0 -8.0 0.0
56.5 -8.0 0.0
57.0 -8.0 0.0
57.5 -8.0 0.0
58.0 -8.0 0.0
58.5 -8.0 0.0
59.0 -8.0 0.0
59.5 -8.0 0.0
60.0 -8.0 0.0
60.5 -8.0 0.0
61.0 -8.0 0.0
61.5 -8.0 0.0
62.0 -8.0 0.0
62.5 -8.0 0.0
63.0 -8.0 0.0
63.5 -8.0 0.0
64.0 -8.0 0.0
64.5 -8.0 0.0
65.0 -8.0 0.0
65.5 -8.0 0.0
66.0 -8.0 0.0
66.5 -8.0 0.0
67.0 -8.0 0.0
67.5 -8.0 0.0
68.0 -8.0 0.0
68.5 -8.0 0.0
69.0 -8.0 0.0
69.5 -8.0 0.0
70.0 -8.0 0.0
70.5 -8.0 0.0
71.0 -8.0 0.0
71.5 -8.0 0.0
72.0 -8.0 0.0
72.5 -8.0 0.0
73.0 -8.0 0.0
73.5 -8.0 0.0
74.0 -8.0 0.0
74.5 -8.0 0.0
75.0 -8.0 0.0
75.5 -8.0 0.0
76.0 -8.0 0.0
76.5 -8.0 0.0
77.0 -8.0 0.0
77.5 -8.0 0.0
78.0 -8.0 0.0
78.5 -8.0 0.0
79.0 -8.0 0.0
79.5 -8.0 0.0
80.0 -8.0 0.0
80.5 -8.0 0.0
81.0 -8.0 0.0
81.5 -8.0 0.0
82.0 -8.0 0.0
82.5 -8.0 0.0
83.0 -8.0 0.0
83.5 -8.0 0.0
84.0 -8.0 0.0
84.5 -8.0 0.0
85.0 -8.0 0.0
85.5 -8.0 0.0
86.0 -8.0 0.0
86.5 -8.0 0.0
87.0 -8.0 0.0
87.5 -8.0 0.0
88.0 -8.0 0.0
88.5 -8.0 0.0
89.0 -8.0 0.0
89.5 -8.0 0.0
90.0 -8.0 0.0
90.5 -8.0 0.0
91.0 -8.0 0.0
91.5 -8.0 0.0
92.0 -8.0 0.0
92.5 -8.0 0.0
93.0 -8.0 0.0
93.5 -8.0 0.0
94.0 -8.0 0.0
94.5 -8.0 0.0
95.0 -8.0 0.0
95.5 -8.0 0.0
96.0 -8.0 0.0
96.5 -8.0 0.0
97.0 -8.0 0.0
97.5 -8.0 0.0
98.0 -8.0 0.0
98.5 -8.0 0.0
99.0 -8.0 0.0
99.5 -8.0 0.0
100.0 -8.0 0.0
0.0 -7.0 0.0
0.5 -7.0 0.0
1.0 -7.0 0.0
1.5 -7.0 0.0
2.0 -7.0 0.0
2.5 -7.0 0.0
3.0 -7.0 0.0
3.5 -7.0 0.0
4.0 -7.0 0.0
4.5 -7.0 0.0
5.0 -7.0 0.0
5.5 -7.0 0.0
6.0 -7.0 0.0
6.5 -7.0 0.0
7.0 -7.0 0.0
7.5 -7.0 0.0
8.0 -7.0 0.0
8.5 -7.0 0.0
9.0 -7.0 0.0
9.5 -7.0 0.0
10.0 -7.0 0.0
10.5 -7.0 0.0
11.0 -7.0 0.0
11.5 -7.0 0.0
12.0 -7.0 0.0
12.5 -7.0 0.0
13.0 -7.0 0.0
13.5 -7.0 0.0
14.0 -7.0 0.0
14.5 -7.0 0.0
15.0 -7.0 0.0
15.5 -7.0 0.0
16.0 -7.0 0.0
16.5 -7.0 0.0
17.0 -7.0 0.0
17.5 -7.0 0.0
18.0 -7.0 0.0
18.5 -7.0 0.0
19.0 -7.0 0.0
19.5 -7.0 0.0
20.0 -7.0 0.0
20.5 -7.0 0.0
21.0 -7.0 0.0
21.5 -7.0 0.0
22.0 -7.0 0.0
22.5 -7.0 0.0
23.0 -7.0 0.0
23.5 -7.0 0.0
24.0 -7.0 0.0
24.5 -7.0 0.0
25.0 -7.0 0.0
25.5 -7.0 0.0
26.0 -7.0 0.0
26.5 -7.0 0.0
27.0 -7.0 0.0
27.5 -7.0 0.0
28.0 -7.0 0.0
28.5 -7.0 0.0
29.0 -7.0 0.0
29.5 -7.0 0.0
30.0 -7.0 0.0
30.5 -7.0 0.0
31.0 -7.0 0.0
31.5 -7.0 0.0
32.0 -7.0 0.0
32.5 -7.0 0.0
33.0 -7.0 0.0
33.5 -7.0 0.0
34.0 -7.0 0.0
34.5 -7.0 0.0
35.0 -7.0 0.0
35.5 -7.0 0.0
36.0 -7.0 0.0
36.5 -7.0 0.0
37.0 -7.0 0.0
37.5 -7.0 0.0
38.0 -7.0 0.0
38.5 -7.0 0.0
39.0 -7.0 0.0
39.5 -7.0 0.0
40.0 -7.0 0.0
40.5 -7.0 0.0
41.0 -7.0 0.0
41.5 -7.0 0.0
42.0 -7.0 0.0
42.5 -7.0 0.0
43.0 -7.0 0.0
43.5 -7.0 0.0
44.0 -7.0 0.0
44.5 -7.0 0.0
45.0 -7.0 0.0
45.5 -7.0 0.0
46.0 -7.0 0.0
46.5 -7.0 0.0
47.0 -7.0 0.0
47.5 -7.0 0.0
[...]
POINT_DATA 4221
VECTORS Disp float
0.0 0.0 0.0
0.0 0.0 0.0004679747043926747
0.0 0.0 -5.035851689510229e-05
0.0 0.0 -0.0014543448007017536
0.0 0.0 -0.004385050522984069
0.0 0.0 -0.00819414811838554
0.0 0.0 -0.013870960756052854
0.0 0.0 -0.02030760830640032
0.0 0.0 -0.02888039140060855
0.0 0.0 -0.038045260978484714
0.0 0.0 -0.049580090471587034
0.0 0.0 -0.061514241467165866
0.0 0.0 -0.0760336672424781
0.0 0.0 -0.09074571675286236
0.0 0.0 -0.10824773083672441
0.0 0.0 -0.12572749380702047
0.0 0.0 -0.14619557982375367
0.0 0.0 -0.16642162212961217
0.0 0.0 -0.1898305240616075
0.0 0.0 -0.21277462576332704
0.0 0.0 -0.23909383651094182
0.0 0.0 -0.2647237401931575
0.0 0.0 -0.2939196795131831
0.0 0.0 -0.32220082329544214
0.0 0.0 -0.35423822019647244
0.0 0.0 -0.38513484151573224
0.0 0.0 -0.4199776151391764
0.0 0.0 -0.4534534523498957
0.0 0.0 -0.4910652687897809
0.0 0.0 -0.5270840007289552
0.0 0.0 -0.5674286174623775
0.0 0.0 -0.6059541306288585
0.0 0.0 -0.648995600972368
0.0 0.0 -0.6899921431077228
0.0 0.0 -0.735694928611574
0.0 0.0 -0.7791271878474056
0.0 0.0 -0.8274562107103196
0.0 0.0 -0.8732893465983856
0.0 0.0 -0.924210003702979
0.0 0.0 -0.9724096478570391
0.0 0.0 -1.025887800968315
0.0 0.0 -1.0764200392317653
0.0 0.0 -1.132421991101828
0.0 0.0 -1.1852533351897596
0.0 0.0 -1.2437457980334863
0.0 0.0 -1.2988431518870884
0.0 0.0 -1.3597932124530587
0.0 0.0 -1.417123836693967
0.0 0.0 -1.4804989206285326
0.0 0.0 -1.5400303972434854
0.0 0.0 -1.6057982344123638
0.0 0.0 -1.667498432950905
0.0 0.0 -1.7356270246893883
0.0 0.0 -1.799464070692172
0.0 0.0 -1.8699216594961159
0.0 0.0 -1.9358639055003217
0.0 0.0 -2.0086189473716614
0.0 0.0 -2.076634946601668
0.0 0.0 -2.151656086073213
0.0 0.0 -2.221714568776182
0.0 0.0 -2.2989706165252746
0.0 0.0 -2.3710404688232742
0.0 0.0 -2.4505003817179065
0.0 0.0 -2.5245506268002176
0.0 0.0 -2.606183490187704
0.0 0.0 -2.6821832716450014
0.0 0.0 -2.7659582836805954
0.0 0.0 -2.8438768507773546
0.0 0.0 -2.929763308590667
0.0 0.0 -3.0095700032770196
0.0 0.0 -3.0975372907822543
0.0 0.0 -3.179201536257262
0.0 0.0 -3.2692191134259754
0.0 0.0 -3.352710404078225
0.0 0.0 -3.4447477975080028
0.0 0.0 -3.5300356900745498
0.0 0.0 -3.6240624847023724
0.0 0.0 -3.711116590502542
0.0 0.0 -3.807102422326843
0.0 0.0 -3.895892400442117
0.0 0.0 -3.9938069501318383
0.0 0.0 -4.084302501417103
0.0 0.0 -4.184115488699617
0.0 0.0 -4.276286350523768
0.0 0.0 -4.377967529255624
0.0 0.0 -4.471783470881207
0.0 0.0 -4.575302624716756
0.0 0.0 -4.670733443238798
0.0 0.0 -4.776060381821591
0.0 0.0 -4.873075898595076
0.0 0.0 -4.980180454205801
0.0 0.0 -5.078750511699411
0.0 0.0 -5.187602536301771
0.0 0.0 -5.2876969953230075
0.0 0.0 -5.398266357955894
0.0 0.0 -5.499855095198858
0.0 0.0 -5.6121116796690265
0.0 0.0 -5.715164585541832
0.0 0.0 -5.829078288376566
0.0 0.0 -5.933565265070337
0.0 0.0 -6.049105993694161
0.0 0.0 -6.154996953459436
0.0 0.0 -6.272134624562752
0.0 0.0 -6.379399488163164
0.0 0.0 -6.4981040262341425
0.0 0.0 -6.6067127215500365
0.0 0.0 -6.7269540575438365
0.0 0.0 -6.836876518301301
0.0 0.0 -6.95862458842328
0.0 0.0 -7.069830753026121
0.0 0.0 -7.193055497607495
0.0 0.0 -7.305515308051677
0.0 0.0 -7.430186670497878
0.0 0.0 -7.543870071349201
0.0 0.0 -7.669957997142382
0.0 0.0 -7.7848349345593855
0.0 0.0 -7.9123093702974385
0.0 0.0 -8.028349791082318
0.0 0.0 -8.157180683537494
0.0 0.0 -8.274354534198254
0.0 0.0 -8.404511829378746
0.0 0.0 -8.522789055186024
0.0 0.0 -8.654242697383898
0.0 0.0 -8.773593241405791
0.0 0.0 -8.906313172214432
0.0 0.0 -9.02670697431226
0.0 0.0 -9.160663131595893
0.0 0.0 -9.282070127362978
0.0 0.0 -9.41723244416008
0.0 0.0 -9.539622563784732
0.0 0.0 -9.675960967125587
0.0 0.0 -9.799304134158099
0.0 0.0 -9.936788543775632
0.0 0.0 -10.061054673777122
0.0 0.0 -10.199655000687768
0.0 0.0 -10.324813999736698
0.0 0.0 -10.464500144665804
0.0 0.0 -10.590521907695262
0.0 0.0 -10.731263759318685
0.0 0.0 -10.85811816825434
0.0 0.0 -10.999885601224351
0.0 0.0 -11.127542522889245
0.0 0.0 -11.27030539560878
0.0 0.0 -11.398734679356924
0.0 0.0 -11.542462831461629
0.0 0.0 -11.67163430649703
0.0 0.0 -11.81629755599904
0.0 0.0 -11.946181028331196
0.0 0.0 -12.091749168372441
0.0 0.0 -12.222314417352715
0.0 0.0 -12.3687572125088
0.0 0.0 -12.499973986884998
0.0 0.0 -12.647261168952921
0.0 0.0 -12.779099182371825
0.0 0.0 -12.927200445567493
0.0 0.0 -13.05962937144703
0.0 0.0 -13.208514366931121
0.0 0.0 -13.341503832617839
0.0 0.0 -13.491142162262548
0.0 0.0 -13.624661742385232
0.0 0.0 -13.775022951692563
0.0 0.0 -13.90904216062387
0.0 0.0 -14.06009573071099
0.0 0.0 -14.19458401405957
0.0 0.0 -14.346299352644765
0.0 0.0 -14.481226077727998
0.0 0.0 -14.633572509091165
0.0 0.0 -14.768906954395495
0.0 0.0 -14.921853708365179
0.0 0.0 -15.057565052106398
0.0 0.0 -15.211081252265032
0.0 0.0 -15.347138560344135
0.0 0.0 -15.501193211881194
0.0 0.0 -15.637565425838591
0.0 0.0 -15.792127403873023
0.0 0.0 -15.928783329943343
0.0 0.0 -16.083821369762102
0.0 0.0 -16.22072967091978
0.0 0.0 -16.37621236254347
0.0 0.0 -16.513341556641553
0.0 0.0 -16.66923734755407
0.0 0.0 -16.806555816466613
0.0 0.0 -16.962833028311056
0.0 0.0 -17.100309045621422
0.0 0.0 -17.25693591301465
0.0 0.0 -17.394537701631023
0.0 0.0 -17.551482443010887
0.0 0.0 -17.689178280287724
0.0 0.0 -17.846409208288396
0.0 0.0 -17.984167609463608
0.0 0.0 -18.141653269603992
0.0 0.0 -18.2794433198404
0.0 0.0 -18.43715256986476
0.0 0.0 -18.574944614802185
0.0 0.0 -18.732846277593367
0.0 0.0 -18.870613684215666
0.0 0.0 -19.02867446608737
0.0 0.0 -19.16639874969214
0.0 0.0 -19.324576180348686
0.0 0.0 -19.462258557349955
0.0 0.0 -19.620490215408818
0.0 0.0 0.0
0.0 0.0 -0.00042905577995123507
0.0 0.0 -0.0016192227098197145
0.0 0.0 -0.004079066307226394
0.0 0.0 -0.007405128008095878
0.0 0.0 -0.012401138660965903
0.0 0.0 -0.01818315270893754
0.0 0.0 -0.025931553683366797
0.0 0.0 -0.03431980827973091
0.0 0.0 -0.04492545441451135
0.0 0.0 -0.05599214163826424
0.0 0.0 -0.0695030591795652
0.0 0.0 -0.08327797428850303
0.0 0.0 -0.09970999966059477
0.0 0.0 -0.1161981737161142
0.0 0.0 -0.1355479046899238
0.0 0.0 -0.15473931542022765
0.0 0.0 -0.17699151332519905
0.0 0.0 -0.19886680370946982
0.0 0.0 -0.22399885921422352
0.0 0.0 -0.24853285515101342
0.0 0.0 -0.27651757789024445
0.0 0.0 -0.3036815119134868
0.0 0.0 -0.33448890975907664
0.0 0.0 -0.3642518482752954
0.0 0.0 -0.39785027377449933
0.0 0.0 -0.4301800382586559
0.0 0.0 -0.46653692834778776
0.0 0.0 -0.5014006883391967
0.0 0.0 -0.5404830384368807
0.0 0.0 -0.5778476891174743
0.0 0.0 -0.6196223522940789
0.0 0.0 -0.6594547499489997
0.0 0.0 -0.7038886206485113
0.0 0.0 -0.7461557244180768
0.0 0.0 -0.7932158462247242
0.0 0.0 -0.8378847984180978
0.0 0.0 -0.8875384222635705
0.0 0.0 -0.934576588835127
0.0 0.0 -0.986791199323268
0.0 0.0 -1.0361661849706376
0.0 0.0 -1.0909095066360757
0.0 0.0 -1.1425891541642645
0.0 0.0 -1.1998291455231354
0.0 0.0 -1.2537815258638494
0.0 0.0 -1.313486366437863
0.0 0.0 -1.3696797635126006
0.0 0.0 -1.4318178371999102
0.0 0.0 -1.4902207303317496
0.0 0.0 -1.5547606072819287
0.0 0.0 -1.6153416528654603
0.0 0.0 -1.682252071202484
0.0 0.0 -1.74498008467811
0.0 0.0 -1.814229932875741
0.0 0.0 -1.8790738716168274
0.0 0.0 -1.9506321719768136
0.0 0.0 -2.0175611194130423
0.0 0.0 -2.0913970128677706
0.0 0.0 -2.160380163985475
0.0 0.0 -2.236462896301946
0.0 0.0 -2.3074695445481606
0.0 0.0 -2.385768453921226
0.0 0.0 -2.458767979469672
0.0 0.0 -2.539252485440329
0.0 0.0 -2.6142143447387074
0.0 0.0 -2.6968539383451624
0.0 0.0 -2.7737476548435755
0.0 0.0 -2.8585118898999915
0.0 0.0 -2.9373070458528474
0.0 0.0 -3.0241655312474727
0.0 0.0 -3.104831760481362
0.0 0.0 -3.1937541533883245
0.0 0.0 -3.276261134932756
0.0 0.0 -3.367217134837677
0.0 0.0 -3.451534587322488
0.0 0.0 -3.5444939307696264
0.0 0.0 -3.6305916075008415
0.0 0.0 -3.7255240634777023
0.0 0.0 -3.813371748111935
0.0 0.0 -3.910247113995555
0.0 0.0 -3.9998146167412325
0.0 0.0 -4.09860271473831
0.0 0.0 -4.189859869019655
0.0 0.0 -4.290530543040144
0.0 0.0 -4.383447202566978
0.0 0.0 -4.485970315477562
0.0 0.0 -4.5805163516705445
0.0 0.0 -4.684861782880502
0.0 0.0 -4.781007082607194
0.0 0.0 -4.887144725944775
0.0 0.0 -4.9848591895271115
0.0 0.0 -5.092758951369398
0.0 0.0 -5.192012490827734
0.0 0.0 -5.301644288451246
0.0 0.0 -5.402406825954294
0.0 0.0 -5.513740586077435
0.0 0.0 -5.615982052570827
0.0 0.0 -5.728987710062613
0.0 0.0 -5.832678044052083
0.0 0.0 -5.947325540784354
0.0 0.0 -6.052434687252068
0.0 0.0 -6.168693971075164
0.0 0.0 -6.275191880510106
0.0 0.0 -6.393032904333781
0.0 0.0 -6.500889531859222
0.0 0.0 -6.620282252822776
0.0 0.0 -6.729467557405366
0.0 0.0 -6.850381936122231
0.0 0.0 -6.960865879848813
0.0 0.0 -7.083271879712423
0.0 0.0 -7.195024427121839
0.0 0.0 -7.31889201366039
0.0 0.0 -7.431883131118461
0.0 0.0 -7.5571822713873535
0.0 0.0 -7.671381926494031
0.0 0.0 -7.798082588495134
0.0 0.0 -7.913460749513345
0.0 0.0 -8.041532901630873
0.0 0.0 -8.158059536926984
0.0 0.0 -8.287473147370093
0.0 0.0 -8.40511822485606
0.0 0.0 -8.535843261098169
0.0 0.0 -8.65457674766557
0.0 0.0 -8.786583175870556
0.0 0.0 -8.906375036806397
0.0 0.0 -9.039632821231391
0.0 0.0 -9.160453019605335
0.0 0.0 -9.294932121969575
0.0 0.0 -9.416750617981515
0.0 0.0 -9.552420996789907
0.0 0.0 -9.675207747066414
0.0 0.0 -9.812039356875525
0.0 0.0 -9.935764313702194
0.0 0.0 -10.07372710431556
0.0 0.0 -10.198360214791498
0.0 0.0 -10.337424130369408
0.0 0.0 -10.462935335468257
0.0 0.0 -10.603070313535595
0.0 0.0 -10.729429547055664
0.0 0.0 -10.870605517389372
0.0 0.0 -10.997782704773117
0.0 0.0 -11.139969588148197
0.0 0.0 -11.267934645148639
0.0 0.0 -11.411102351918496
0.0 0.0 -11.539825183086661
0.0 0.0 -11.683943611570175
0.0 0.0 -11.813394108533691
0.0 0.0 -11.95843314317666
0.0 0.0 -12.088581182674817
0.0 0.0 -12.234510691948481
0.0 0.0 -12.365326133583135
0.0 0.0 -12.51211596757586
0.0 0.0 -12.64356865123109
0.0 0.0 -12.791188638881946
0.0 0.0 -12.923248381756817
0.0 0.0 -13.071668327671242
0.0 0.0 -13.20430492086077
0.0 0.0 -13.35349460163816
0.0 0.0 -13.486677806187233
0.0 0.0 -13.636606966179443
0.0 0.0 -13.770306508522713
0.0 0.0 -13.920944854930816
0.0 0.0 -14.05513042162048
0.0 0.0 -14.206447618826603
0.0 0.0 -14.3410888504407
0.0 0.0 -14.49305451346505
0.0 0.0 -14.62812099758605
0.0 0.0 -14.780704684561435
0.0 0.0 -14.916165947724512
0.0 0.0 -15.069337151301394
0.0 0.0 -15.205162649847615
0.0 0.0 -15.358890787498032
0.0 0.0 -15.495049897350016
0.0 0.0 -15.649304300656864
0.0 0.0 -15.785766306201074
0.0 0.0 -15.940516209446171
0.0 0.0 -16.077250292017013
0.0 0.0 -16.23246482079182
0.0 0.0 -16.369440047810272
0.0 0.0 -16.525088209079826
0.0 0.0 -16.662273525867313
0.0 0.0 -16.81832420207517
0.0 0.0 -16.95568843001359
0.0 0.0 -17.112110381560367
0.0 0.0 -17.249622229072884
0.0 0.0 -17.40638411170183
0.0 0.0 -17.544012209449615
0.0 0.0 -17.701082614341654
0.0 0.0 -17.83879559565474
0.0 0.0 -17.99614311434628
0.0 0.0 -18.133909785130303
0.0 0.0 -18.291503066701928
0.0 0.0 -18.429292780324282
0.0 0.0 -18.58710040860648
0.0 0.0 -18.724884012869936
0.0 0.0 -18.88287352733221
0.0 0.0 -19.020626119451098
0.0 0.0 -19.178759871008552
0.0 0.0 -19.316468668183234
0.0 0.0 -19.474692790138842
0.0 0.0 -19.61236844632607
0.0 0.0 0.0
0.0 0.0 -0.0006150997380874309
0.0 0.0 -0.002478624847819931
0.0 0.0 -0.005285526711759409
0.0 0.0 -0.00960694339817576
0.0 0.0 -0.014762586095575249
0.0 0.0 -0.02172680987072004
0.0 0.0 -0.02938506021143588
0.0 0.0 -0.039111322880657204
0.0 0.0 -0.04936159065187398
0.0 0.0 -0.06191507979039229
0.0 0.0 -0.07480321131199658
0.0 0.0 -0.0902143828399387
0.0 0.0 -0.10575857867788929
0.0 0.0 -0.12403585084868031
0.0 0.0 -0.1422367010982699
0.0 0.0 -0.16337438496132245
0.0 0.0 -0.18422115515501447
0.0 0.0 -0.2082044569335892
0.0 0.0 -0.23167908549085242
0.0 0.0 -0.2584873130154153
0.0 0.0 -0.2845669914990799
0.0 0.0 -0.3141756359786422
0.0 0.0 -0.34283449203121413
0.0 0.0 -0.3752165904671147
0.0 0.0 -0.4064267916852459
0.0 0.0 -0.4415538215719787
0.0 0.0 -0.4752863005739003
0.0 0.0 -0.5131287671546142
0.0 0.0 -0.5493536967370628
0.0 0.0 -0.589881516907328
0.0 0.0 -0.6285686196392943
0.0 0.0 -0.6717513710294515
0.0 0.0 -0.7128701190771486
0.0 0.0 -0.7586771998075628
0.0 0.0 -0.8021969421250674
0.0 0.0 -0.8505976715642466
0.0 0.0 -0.8964877132290446
0.0 0.0 -0.9474513939984526
0.0 0.0 -0.9956810442256808
0.0 0.0 -1.049176998947909
0.0 0.0 -1.099715598792671
0.0 0.0 -1.1557131905551614
0.0 0.0 -1.208530127606841
0.0 0.0 -1.2669987700793404
0.0 0.0 -1.3220634849686035
0.0 0.0 -1.3829726460813396
0.0 0.0 -1.4402546339602817
0.0 0.0 -1.5035738356939299
0.0 0.0 -1.563042644743543
0.0 0.0 -1.6287414606804336
0.0 0.0 -1.6903666889656372
0.0 0.0 -1.7584147406550281
0.0 0.0 -1.8221660321631876
0.0 0.0 -1.8925329849609085
0.0 0.0 -1.958380025342171
0.0 0.0 -2.0310355841284915
0.0 0.0 -2.0989480964497482
0.0 0.0 -2.173862001463363
0.0 0.0 -2.2438097421545797
0.0 0.0 -2.320951765074333
0.0 0.0 -2.392904520161435
0.0 0.0 -2.472244460500415
0.0 0.0 -2.5461720421661354
0.0 0.0 -2.627679724001408
0.0 0.0 -2.703551967483374
0.0 0.0 -2.7871972365198747
0.0 0.0 -2.8649839973363243
0.0 0.0 -2.9507367182893622
0.0 0.0 -3.030407869772607
0.0 0.0 -3.1182379240459905
0.0 0.0 -3.1997633551586575
0.0 0.0 -3.289640638792335
0.0 0.0 -3.3729902521996884
0.0 0.0 -3.464884674060084
0.0 0.0 -3.5500283844318674
0.0 0.0 -3.6439098646189305
0.0 0.0 -3.730817597135489
0.0 0.0 -3.8266560655820507
0.0 0.0 -3.915297754621327
0.0 0.0 -4.013063149862376
0.0 0.0 -4.103408737846414
0.0 0.0 -4.20307100593799
0.0 0.0 -4.295090442319696
0.0 0.0 -4.396619535889241
0.0 0.0 -4.490282776262208
0.0 0.0 -4.593648653674081
0.0 0.0 -4.688925658990194
0.0 0.0 -4.794098283611968
0.0 0.0 -4.890959019493245
0.0 0.0 -4.997908359050024
0.0 0.0 -5.096322795182621
0.0 0.0 -5.205018821188127
0.0 0.0 -5.304956930787931
0.0 0.0 -5.415369618042293
0.0 0.0 -5.516801377382759
0.0 0.0 -5.628900703528298
0.0 0.0 -5.731796091522151
0.0 0.0 -5.845552036649201
0.0 0.0 -5.949881034476722
0.0 0.0 -6.065263580772657
0.0 0.0 -6.17099617154992
0.0 0.0 -6.287975302985171
0.0 0.0 -6.395081471466389
0.0 0.0 -6.513627173511876
0.0 0.0 -6.622076905820682
0.0 0.0 -6.742159165191687
0.0 0.0 -6.851922448576524
0.0 0.0 -6.973511252998543
0.0 0.0 -7.0845580756078785
0.0 0.0 -7.207623413600233
0.0 0.0 -7.319923764273659
0.0 0.0 -7.444435624947086
0.0 0.0 -7.557959493018545
0.0 0.0 -7.683887865883235
0.0 0.0 -7.798605240992962
0.0 0.0 -7.925920115773552
0.0 0.0 -8.04180098768536
0.0 0.0 -8.170472354139662
0.0 0.0 -8.287486712560296
0.0 0.0 -8.417484560298583
0.0 0.0 -8.535602394696005
0.0 0.0 -8.666896712997465
0.0 0.0 -8.786088012414748
0.0 0.0 -8.91864879003798
0.0 0.0 -9.038883542899491
0.0 0.0 -9.172680767883426
0.0 0.0 -9.293928961789748
0.0 0.0 -9.428932621241598
0.0 0.0 -9.5511642427493
0.0 0.0 -9.687344322615289
0.0 0.0 -9.810529356997618
0.0 0.0 -9.94785584181233
0.0 0.0 -10.071964272796004
0.0 0.0 -10.210407145405396
0.0 0.0 -10.335408954878416
0.0 0.0 -10.474938196130935
0.0 0.0 -10.600803363815432
0.0 0.0 -10.741388952214756
0.0 0.0 -10.868087455297816
0.0 0.0 -11.00969936660972
0.0 0.0 -11.137201179323954
0.0 0.0 -11.279809386128234
0.0 0.0 -11.408084479272247
0.0 0.0 -11.551658950448626
0.0 0.0 -11.680677290835167
0.0 0.0 -11.825187990969948
0.0 0.0 -11.954919540786765
0.0 0.0 -12.100336429483189
0.0 0.0 -12.230751145547726
0.0 0.0 -12.37704417661911
0.0 0.0 -12.508112009503114
0.0 0.0 -12.65525113002142
0.0 0.0 -12.786942023014953
0.0 0.0 -12.934897172179888
0.0 0.0 -13.067181060054372
0.0 0.0 -13.215922167837695
0.0 0.0 -13.348768975356293
0.0 0.0 -13.498265960861195
0.0 0.0 -13.631645600967785
0.0 0.0 -13.781868370424993
0.0 0.0 -13.915750742021547
0.0 0.0 -14.06666918631831
0.0 0.0 -14.201024171511516
0.0 0.0 -14.352608163117084
0.0 0.0 -14.487405623778205
0.0 0.0 -14.639625012887306
0.0 0.0 -14.77483478632188
0.0 0.0 -14.927659395985486
0.0 0.0 -15.063251289452033
0.0 0.0 -15.216650909402414
0.0 0.0 -15.35259469315419
0.0 0.0 -15.50653907196429
0.0 0.0 -15.642804470422707
0.0 0.0 -15.79726330558084
0.0 0.0 -15.933819986206256
0.0 0.0 -16.0887629116667
0.0 0.0 -16.225580471118313
0.0 0.0 -16.380977041969427
0.0 0.0 -16.518024989343882
0.0 0.0 -16.67384466353797
0.0 0.0 -16.811092401051425
0.0 0.0 -16.967304518865372
0.0 0.0 -17.104721321721435
0.0 0.0 -17.261295085024518
0.0 0.0 -17.39885008527125
0.0 0.0 -17.555754540787184
0.0 0.0 -17.693416726686532
0.0 0.0 -17.850620758601742
0.0 0.0 -17.988359016427843
0.0 0.0 -18.14583134502116
0.0 0.0 -18.28361460947904
0.0 0.0 -18.441323738056482
0.0 0.0 -18.579121435245433
0.0 0.0 -18.737035260536775
0.0 0.0 -18.874818638383843
0.0 0.0 -19.03290262578665
0.0 0.0 -19.170649033670617
0.0 0.0 -19.32885914592844
0.0 0.0 -19.466564026785893
0.0 0.0 -19.624833608924288
0.0 0.0 0.0
0.0 0.0 -0.0007576569700020241
0.0 0.0 -0.002724204302218043
0.0 0.0 -0.00618148653530277
0.0 0.0 -0.010601418291466826
0.0 0.0 -0.016721836769134517
0.0 0.0 -0.02362202862302561
0.0 0.0 -0.032461358901558095
0.0 0.0 -0.04190117093137674
0.0 0.0 -0.053512153144881905
0.0 0.0 -0.06553433243165963
0.0 0.0 -0.07994930552391769
0.0 0.0 -0.09457654877426212
0.0 0.0 -0.11180973017163631
0.0 0.0 -0.12904899641001039
0.0 0.0 -0.14910122408414875
0.0 0.0 -0.1689482345935109
0.0 0.0 -0.19181097507764533
0.0 0.0 -0.21425366956530315
0.0 0.0 -0.2399119444302506
0.0 0.0 -0.26493293220406616
0.0 0.0 -0.2933673572085931
0.0 0.0 -0.3209456061187615
0.0 0.0 -0.3521337859920801
0.0 0.0 -0.3822457719996498
0.0 0.0 -0.41616324662048315
0.0 0.0 -0.4487837318684404
0.0 0.0 -0.4854046157414397
0.0 0.0 -0.5205071739884675
0.0 0.0 -0.5598045879793342
0.0 0.0 -0.5973619594447652
0.0 0.0 -0.6393083225906137
0.0 0.0 -0.6792926541304252
0.0 0.0 -0.7238598815464583
0.0 0.0 -0.766242889973123
0.0 0.0 -0.8134025278800396
0.0 0.0 -0.8581556118488115
0.0 0.0 -0.9078789305295565
0.0 0.0 -0.9549732480058731
0.0 0.0 -1.007231306591546
0.0 0.0 -1.0566378292456615
0.0 0.0 -1.1114015215858608
0.0 0.0 -1.163091073660208
0.0 0.0 -1.2203311614267467
0.0 0.0 -1.2742744480855526
0.0 0.0 -1.3339615851903606
0.0 0.0 -1.3901292136759953
0.0 0.0 -1.452233964712323
0.0 0.0 -1.5105964605171809
0.0 0.0 -1.5750893150263487
0.0 0.0 -1.635617134552362
0.0 0.0 -1.7024685183201451
0.0 0.0 -1.7651320590125277
0.0 0.0 -1.8343123432053008
0.0 0.0 -1.8990819518273938
0.0 0.0 -1.9705614605186563
0.0 0.0 -2.0374074400241127
0.0 0.0 -2.111156456490898
0.0 0.0 -2.180049071810348
0.0 0.0 -2.2560378438658653
0.0 0.0 -2.326947326832885
0.0 0.0 -2.405146071386311
0.0 0.0 -2.478042624965883
0.0 0.0 -2.5584215319496817
0.0 0.0 -2.633275333890671
0.0 0.0 -2.7158045696613384
0.0 0.0 -2.7925857756659385
0.0 0.0 -2.8772354859603073
0.0 0.0 -2.955914232443442
0.0 0.0 -3.0426545449558224
0.0 0.0 -3.123200951453266
0.0 0.0 -3.2120019780865325
0.0 0.0 -3.294386149359949
0.0 0.0 -3.3852179881946083
0.0 0.0 -3.469410016073887
0.0 0.0 -3.56224275309218
0.0 0.0 -3.648212718089201
0.0 0.0 -3.743016428685889
0.0 0.0 -3.8307344014090683
0.0 0.0 -3.927479151716046
0.0 0.0 -4.016915194110931
0.0 0.0 -4.115571042159235
0.0 0.0 -4.206695208597083
0.0 0.0 -4.307232205336835
0.0 0.0 -4.4000145435703395
0.0 0.0 -4.5024027337664805
0.0 0.0 -4.596813285769437
0.0 0.0 -4.70102270878899
0.0 0.0 -4.797031511494576
0.0 0.0 -4.903032201999167
0.0 0.0 -5.000609287949781
0.0 0.0 -5.108371276505555
0.0 0.0 -5.207486674425489
0.0 0.0 -5.316979988041151
0.0 0.0 -5.417603723342264
0.0 0.0 -5.528798385944544
0.0 0.0 -5.6309004811736685
0.0 0.0 -5.743766514028659
0.0 0.0 -5.847316989264662
0.0 0.0 -5.96182441135234
0.0 0.0 -6.066793284559775
0.0 0.0 -6.182912112908297
0.0 0.0 -6.289269400253855
0.0 0.0 -6.4069696502395646
0.0 0.0 -6.514685366376851
0.0 0.0 -6.633937051995135
0.0 0.0 -6.742981210322873
0.0 0.0 -6.863754344434758
0.0 0.0 -6.974096957332839
0.0 0.0 -7.096361551891592
0.0 0.0 -7.207972630939211
0.0 0.0 -7.331698697200934
0.0 0.0 -7.444548253380608
0.0 0.0 -7.569705802102556
0.0 0.0 -7.6837638459936
0.0 0.0 -7.810322887623702
0.0 0.0 -7.9255594295886285
0.0 0.0 -8.053489974449503
0.0 0.0 -8.169875024816497
0.0 0.0 -8.299147083287243