# vtk DataFile Version 3.0
Some data
ASCII
DATASET UNSTRUCTURED_GRID
POINTS 1331 float
0.0 0.0 0.0
0.1 0.0 0.0
0.2 0.0 0.0
0.30000000000000004 0.0 0.0
0.4 0.0 0.0
0.5 0.0 0.0
0.6000000000000001 0.0 0.0
0.7000000000000001 0.0 0.0
0.8 0.0 0.0
0.9 0.0 0.0
1.0 0.0 0.0
0.0 0.1 0.0
0.1 0.1 0.0
0.2 0.1 0.0
0.30000000000000004 0.1 0.0
0.4 0.1 0.0
0.5 0.1 0.0
0.6000000000000001 0.1 0.0
0.7000000000000001 0.1 0.0
0.8 0.1 0.0
0.9 0.1 0.0
1.0 0.1 0.0
0.0 0.2 0.0
0.1 0.2 0.0
0.2 0.2 0.0
0.30000000000000004 0.2 0.0
0.4 0.2 0.0
0.5 0.2 0.0
0.6000000000000001 0.2 0.0
0.7000000000000001 0.2 0.0
0.8 0.2 0.0
0.9 0.2 0.0
1.0 0.2 0.0
0.0 0.30000000000000004 0.0
0.1 0.30000000000000004 0.0
0.2 0.30000000000000004 0.0
0.30000000000000004 0.30000000000000004 0.0
0.4 0.30000000000000004 0.0
0.5 0.30000000000000004 0.0
0.6000000000000001 0.30000000000000004 0.0
0.7000000000000001 0.30000000000000004 0.0
0.8 0.30000000000000004 0.0
0.9 0.30000000000000004 0.0
1.0 0.30000000000000004 0.0
0.0 0.4 0.0
0.1 0.4 0.0
0.2 0.4 0.0
0.30000000000000004 0.4 0.0
0.4 0.4 0.0
0.5 0.4 0.0
0.6000000000000001 0.4 0.0
0.7000000000000001 0.4 0.0
0.8 0.4 0.0
0.9 0.4 0.0
1.0 0.4 0.0
0.0 0.5 0.0
0.1 0.5 0.0
0.2 0.5 0.0
0.30000000000000004 0.5 0.0
0.4 0.5 0.0
0.5 0.5 0.0
0.6000000000000001 0.5 0.0
0.7000000000000001 0.5 0.0
0.8 0.5 0.0
0.9 0.5 0.0
1.0 0.5 0.0
0.0 0.6000000000000001 0.0
0.1 0.6000000000000001 0.0
0.2 0.6000000000000001 0.0
0.30000000000000004 0.6000000000000001 0.0
0.4 0.6000000000000001 0.0
0.5 0.6000000000000001 0.0
0.6000000000000001 0.6000000000000001 0.0
0.7000000000000001 0.6000000000000001 0.0
0.8 0.6000000000000001 0.0
0.9 0.6000000000000001 0.0
1.0 0.6000000000000001 0.0
0.0 0.7000000000000001 0.0
0.1 0.7000000000000001 0.0
0.2 0.7000000000000001 0.0
0.30000000000000004 0.7000000000000001 0.0
0.4 0.7000000000000001 0.0
0.5 0.7000000000000001 0.0
0.6000000000000001 0.7000000000000001 0.0
0.7000000000000001 0.7000000000000001 0.0
0.8 0.7000000000000001 0.0
0.9 0.7000000000000001 0.0
1.0 0.7000000000000001 0.0
0.0 0.8 0.0
0.1 0.8 0.0
0.2 0.8 0.0
0.30000000000000004 0.8 0.0
0.4 0.8 0.0
0.5 0.8 0.0
0.6000000000000001 0.8 0.0
0.7000000000000001 0.8 0.0
0.8 0.8 0.0
0.9 0.8 0.0
1.0 0.8 0.0
0.0 0.9 0.0
0.1 0.9 0.0
0.2 0.9 0.0
0.30000000000000004 0.9 0.0
0.4 0.9 0.0
0.5 0.9 0.0
0.6000000000000001 0.9 0.0
0.7000000000000001 0.9 0.0
0.8 0.9 0.0
0.9 0.9 0.0
1.0 0.9 0.0
0.0 1.0 0.0
0.1 1.0 0.0
0.2 1.0 0.0
0.30000000000000004 1.0 0.0
0.4 1.0 0.0
0.5 1.0 0.0
0.6000000000000001 1.0 0.0
0.7000000000000001 1.0 0.0
0.8 1.0 0.0
0.9 1.0 0.0
1.0 1.0 0.0
0.0 0.0 0.1
0.1 0.0 0.1
0.2 0.0 0.1
0.30000000000000004 0.0 0.1
0.4 0.0 0.1
0.5 0.0 0.1
0.6000000000000001 0.0 0.1
0.7000000000000001 0.0 0.1
0.8 0.0 0.1
0.9 0.0 0.1
1.0 0.0 0.1
0.0 0.1 0.1
0.1 0.1 0.1
0.2 0.1 0.1
0.30000000000000004 0.1 0.1
0.4 0.1 0.1
0.5 0.1 0.1
0.6000000000000001 0.1 0.1
0.7000000000000001 0.1 0.1
0.8 0.1 0.1
0.9 0.1 0.1
1.0 0.1 0.1
0.0 0.2 0.1
0.1 0.2 0.1
0.2 0.2 0.1
0.30000000000000004 0.2 0.1
0.4 0.2 0.1
0.5 0.2 0.1
0.6000000000000001 0.2 0.1
0.7000000000000001 0.2 0.1
0.8 0.2 0.1
0.9 0.2 0.1
1.0 0.2 0.1
0.0 0.30000000000000004 0.1
0.1 0.30000000000000004 0.1
0.2 0.30000000000000004 0.1
0.30000000000000004 0.30000000000000004 0.1
0.4 0.30000000000000004 0.1
0.5 0.30000000000000004 0.1
0.6000000000000001 0.30000000000000004 0.1
0.7000000000000001 0.30000000000000004 0.1
0.8 0.30000000000000004 0.1
0.9 0.30000000000000004 0.1
1.0 0.30000000000000004 0.1
0.0 0.4 0.1
0.1 0.4 0.1
0.2 0.4 0.1
0.30000000000000004 0.4 0.1
0.4 0.4 0.1
0.5 0.4 0.1
0.6000000000000001 0.4 0.1
0.7000000000000001 0.4 0.1
0.8 0.4 0.1
0.9 0.4 0.1
1.0 0.4 0.1
0.0 0.5 0.1
0.1 0.5 0.1
0.2 0.5 0.1
0.30000000000000004 0.5 0.1
0.4 0.5 0.1
0.5 0.5 0.1
0.6000000000000001 0.5 0.1
0.7000000000000001 0.5 0.1
0.8 0.5 0.1
0.9 0.5 0.1
1.0 0.5 0.1
0.0 0.6000000000000001 0.1
0.1 0.6000000000000001 0.1
0.2 0.6000000000000001 0.1
0.30000000000000004 0.6000000000000001 0.1
0.4 0.6000000000000001 0.1
0.5 0.6000000000000001 0.1
0.6000000000000001 0.6000000000000001 0.1
0.7000000000000001 0.6000000000000001 0.1
0.8 0.6000000000000001 0.1
0.9 0.6000000000000001 0.1
1.0 0.6000000000000001 0.1
0.0 0.7000000000000001 0.1
0.1 0.7000000000000001 0.1
0.2 0.7000000000000001 0.1
0.30000000000000004 0.7000000000000001 0.1
0.4 0.7000000000000001 0.1
0.5 0.7000000000000001 0.1
0.6000000000000001 0.7000000000000001 0.1
0.7000000000000001 0.7000000000000001 0.1
0.8 0.7000000000000001 0.1
0.9 0.7000000000000001 0.1
1.0 0.7000000000000001 0.1
0.0 0.8 0.1
0.1 0.8 0.1
0.2 0.8 0.1
0.30000000000000004 0.8 0.1
0.4 0.8 0.1
0.5 0.8 0.1
0.6000000000000001 0.8 0.1
0.7000000000000001 0.8 0.1
0.8 0.8 0.1
0.9 0.8 0.1
1.0 0.8 0.1
0.0 0.9 0.1
0.1 0.9 0.1
0.2 0.9 0.1
0.30000000000000004 0.9 0.1
0.4 0.9 0.1
0.5 0.9 0.1
0.6000000000000001 0.9 0.1
0.7000000000000001 0.9 0.1
0.8 0.9 0.1
0.9 0.9 0.1
1.0 0.9 0.1
0.0 1.0 0.1
0.1 1.0 0.1
0.2 1.0 0.1
0.30000000000000004 1.0 0.1
0.4 1.0 0.1
0.5 1.0 0.1
0.6000000000000001 1.0 0.1
0.7000000000000001 1.0 0.1
0.8 1.0 0.1
0.9 1.0 0.1
1.0 1.0 0.1
0.0 0.0 0.2
0.1 0.0 0.2
0.2 0.0 0.2
0.30000000000000004 0.0 0.2
0.4 0.0 0.2
0.5 0.0 0.2
0.6000000000000001 0.0 0.2
0.7000000000000001 0.0 0.2
0.8 0.0 0.2
0.9 0.0 0.2
1.0 0.0 0.2
0.0 0.1 0.2
0.1 0.1 0.2
0.2 0.1 0.2
0.30000000000000004 0.1 0.2
0.4 0.1 0.2
0.5 0.1 0.2
0.6000000000000001 0.1 0.2
0.7000000000000001 0.1 0.2
0.8 0.1 0.2
0.9 0.1 0.2
1.0 0.1 0.2
0.0 0.2 0.2
0.1 0.2 0.2
0.2 0.2 0.2
0.30000000000000004 0.2 0.2
0.4 0.2 0.2
0.5 0.2 0.2
0.6000000000000001 0.2 0.2
0.7000000000000001 0.2 0.2
0.8 0.2 0.2
0.9 0.2 0.2
1.0 0.2 0.2
0.0 0.30000000000000004 0.2
0.1 0.30000000000000004 0.2
0.2 0.30000000000000004 0.2
0.30000000000000004 0.30000000000000004 0.2
0.4 0.30000000000000004 0.2
0.5 0.30000000000000004 0.2
0.6000000000000001 0.30000000000000004 0.2
0.7000000000000001 0.30000000000000004 0.2
0.8 0.30000000000000004 0.2
0.9 0.30000000000000004 0.2
1.0 0.30000000000000004 0.2
0.0 0.4 0.2
0.1 0.4 0.2
0.2 0.4 0.2
0.30000000000000004 0.4 0.2
0.4 0.4 0.2
0.5 0.4 0.2
0.6000000000000001 0.4 0.2
0.7000000000000001 0.4 0.2
0.8 0.4 0.2
0.9 0.4 0.2
1.0 0.4 0.2
0.0 0.5 0.2
0.1 0.5 0.2
0.2 0.5 0.2
0.30000000000000004 0.5 0.2
0.4 0.5 0.2
0.5 0.5 0.2
0.6000000000000001 0.5 0.2
0.7000000000000001 0.5 0.2
0.8 0.5 0.2
0.9 0.5 0.2
1.0 0.5 0.2
0.0 0.6000000000000001 0.2
0.1 0.6000000000000001 0.2
0.2 0.6000000000000001 0.2
0.30000000000000004 0.6000000000000001 0.2
0.4 0.6000000000000001 0.2
0.5 0.6000000000000001 0.2
0.6000000000000001 0.6000000000000001 0.2
0.7000000000000001 0.6000000000000001 0.2
0.8 0.6000000000000001 0.2
0.9 0.6000000000000001 0.2
1.0 0.6000000000000001 0.2
0.0 0.7000000000000001 0.2
0.1 0.7000000000000001 0.2
0.2 0.7000000000000001 0.2
0.30000000000000004 0.7000000000000001 0.2
0.4 0.7000000000000001 0.2
0.5 0.7000000000000001 0.2
0.6000000000000001 0.7000000000000001 0.2
0.7000000000000001 0.7000000000000001 0.2
0.8 0.7000000000000001 0.2
0.9 0.7000000000000001 0.2
1.0 0.7000000000000001 0.2
0.0 0.8 0.2
0.1 0.8 0.2
0.2 0.8 0.2
0.30000000000000004 0.8 0.2
0.4 0.8 0.2
0.5 0.8 0.2
0.6000000000000001 0.8 0.2
0.7000000000000001 0.8 0.2
0.8 0.8 0.2
0.9 0.8 0.2
1.0 0.8 0.2
0.0 0.9 0.2
0.1 0.9 0.2
0.2 0.9 0.2
0.30000000000000004 0.9 0.2
0.4 0.9 0.2
0.5 0.9 0.2
0.6000000000000001 0.9 0.2
0.7000000000000001 0.9 0.2
0.8 0.9 0.2
0.9 0.9 0.2
1.0 0.9 0.2
0.0 1.0 0.2
0.1 1.0 0.2
0.2 1.0 0.2
0.30000000000000004 1.0 0.2
0.4 1.0 0.2
0.5 1.0 0.2
0.6000000000000001 1.0 0.2
0.7000000000000001 1.0 0.2
0.8 1.0 0.2
0.9 1.0 0.2
1.0 1.0 0.2
0.0 0.0 0.30000000000000004
0.1 0.0 0.30000000000000004
0.2 0.0 0.30000000000000004
0.30000000000000004 0.0 0.30000000000000004
0.4 0.0 0.30000000000000004
0.5 0.0 0.30000000000000004
0.6000000000000001 0.0 0.30000000000000004
0.7000000000000001 0.0 0.30000000000000004
0.8 0.0 0.30000000000000004
0.9 0.0 0.30000000000000004
1.0 0.0 0.30000000000000004
0.0 0.1 0.30000000000000004
0.1 0.1 0.30000000000000004
0.2 0.1 0.30000000000000004
0.30000000000000004 0.1 0.30000000000000004
0.4 0.1 0.30000000000000004
0.5 0.1 0.30000000000000004
0.6000000000000001 0.1 0.30000000000000004
0.7000000000000001 0.1 0.30000000000000004
0.8 0.1 0.30000000000000004
0.9 0.1 0.30000000000000004
1.0 0.1 0.30000000000000004
0.0 0.2 0.30000000000000004
0.1 0.2 0.30000000000000004
0.2 0.2 0.30000000000000004
0.30000000000000004 0.2 0.30000000000000004
0.4 0.2 0.30000000000000004
0.5 0.2 0.30000000000000004
0.6000000000000001 0.2 0.30000000000000004
0.7000000000000001 0.2 0.30000000000000004
0.8 0.2 0.30000000000000004
0.9 0.2 0.30000000000000004
1.0 0.2 0.30000000000000004
0.0 0.30000000000000004 0.30000000000000004
0.1 0.30000000000000004 0.30000000000000004
0.2 0.30000000000000004 0.30000000000000004
0.30000000000000004 0.30000000000000004 0.30000000000000004
0.4 0.30000000000000004 0.30000000000000004
0.5 0.30000000000000004 0.30000000000000004
0.6000000000000001 0.30000000000000004 0.30000000000000004
0.7000000000000001 0.30000000000000004 0.30000000000000004
0.8 0.30000000000000004 0.30000000000000004
0.9 0.30000000000000004 0.30000000000000004
1.0 0.30000000000000004 0.30000000000000004
0.0 0.4 0.30000000000000004
0.1 0.4 0.30000000000000004
0.2 0.4 0.30000000000000004
0.30000000000000004 0.4 0.30000000000000004
0.4 0.4 0.30000000000000004
0.5 0.4 0.30000000000000004
0.6000000000000001 0.4 0.30000000000000004
0.7000000000000001 0.4 0.30000000000000004
0.8 0.4 0.30000000000000004
0.9 0.4 0.30000000000000004
1.0 0.4 0.30000000000000004
0.0 0.5 0.30000000000000004
0.1 0.5 0.30000000000000004
0.2 0.5 0.30000000000000004
0.30000000000000004 0.5 0.30000000000000004
0.4 0.5 0.30000000000000004
0.5 0.5 0.30000000000000004
0.6000000000000001 0.5 0.30000000000000004
0.7000000000000001 0.5 0.30000000000000004
0.8 0.5 0.30000000000000004
0.9 0.5 0.30000000000000004
1.0 0.5 0.30000000000000004
0.0 0.6000000000000001 0.30000000000000004
0.1 0.6000000000000001 0.30000000000000004
0.2 0.6000000000000001 0.30000000000000004
0.30000000000000004 0.6000000000000001 0.30000000000000004
[...]
POINT_DATA 1331
VECTORS Disp float
0.0 0.0 0.0
0.0 0.0 0.0
0.0 0.0 0.0
0.0 0.0 0.0
0.0 0.0 0.0
0.0 0.0 0.0
0.0 0.0 0.0
0.0 0.0 0.0
0.0 0.0 0.0
0.0 0.0 0.0
0.0 0.0 0.0
0.05129983953424183 0.014572522857176287 0.053524654350431335
0.041545450087737336 0.0066832501191442534 0.025312518326159144
0.038790839446579045 0.0037896745801236265 0.01698808703819637
0.03926725193024177 0.0023787999248276095 0.013020588869366847
0.041117531268892456 0.001759617616316067 0.01064442202634666
0.04298932524531905 0.0014882926961652322 0.00880353283267676
0.04423875863063512 0.0013233166961912303 0.0073143129114380595
0.044853171054722155 0.0011332663789257074 0.006187028685346869
0.045082556504809315 0.000610732834042243 0.004798929153767551
0.04543325201345377 0.001030861467407208 -0.00010277354262226332
0.038753820094506584 -0.004966527578139983 -0.039824961340077236
0.10800858107591386 0.04138895680331087 0.06793906428541445
0.09305455636555789 0.018168173041956885 0.04117529678877695
0.08910795594807953 0.009431267433769019 0.0261059386998246
0.08996659231646033 0.005392293176449322 0.01972178612385905
0.09248634697429348 0.003704650841991182 0.015981728564089186
0.09498281765650331 0.003000353506789591 0.01351448480197865
0.09675188746016491 0.002623351750575908 0.011764216373519727
0.09768423628569853 0.002080761394494422 0.010274584675671106
0.09801258317062006 0.000838353054306973 0.008006096666749259
0.09800646238183444 -0.0006149367180433156 -0.0034181302901080185
0.08490028180685862 -0.018757702275485504 -0.03898274200103217
0.16956411936211044 0.06199369058987013 0.06224988366800957
0.15217228797108626 0.027212329523985373 0.04302657231603572
0.1480006527895198 0.012923790416282601 0.02932510319574233
0.149330810237494 0.006872017133436631 0.02244723614216515
0.1524562073596769 0.004335431803198148 0.018705903645499573
0.15580564273340047 0.0032597600525043117 0.016529978700215144
0.1588061203733822 0.002600641189387406 0.015217622332720029
0.1613506451220672 0.0015021685635692385 0.014143769606845909
0.16362940855088648 -0.0009293257023082565 0.011438135751047292
0.16473322301966767 -0.007088549813188436 0.0022057357556516492
0.1486675084028133 -0.03648422156425466 -0.021094711935170502
0.23745949862167037 0.06950191843488845 0.04652474296853032
0.21905989119752978 0.02935816688011858 0.035563357942007004
0.2159144973986845 0.012911426650948323 0.027307648451572096
0.21802178514072207 0.006170414899013238 0.02225314309069816
0.2216993574348268 0.0033542441614451014 0.01945162989688801
0.22567914539065084 0.0020826807888971403 0.018021045828477817
0.22953692846019125 0.0010838582225070493 0.017448845404002596
0.2331464303169787 -0.0007532097041970037 0.017204415409346776
0.23634430797542724 -0.005063527170034591 0.016151280050262704
0.23696230645090557 -0.016277875000768337 0.012143176865612546
0.21958654629240293 -0.05355144668092373 0.0026955998522718836
0.308571644947402 0.06550290466121915 0.025539791205553476
0.2904180084123843 0.024750597671674195 0.023762495933058736
0.289219881840902 0.009774192786825191 0.021847096624458995
0.29205303031779484 0.003744964069050965 0.019876967351608713
0.29589899410045395 0.0012355436508926592 0.01866547657616218
0.2999999999999987 -4.8801279814129244e-17 0.01825699579983822
0.30410100589954364 -0.0012355436508924764 0.0186654765761623
0.3079469696822028 -0.0037449640690508457 0.01987696735160888
0.3107801181590959 -0.009774192786824959 0.021847096624459043
0.3095819915876137 -0.024750597671674 0.02376249593305873
0.291428355052596 -0.06550290466121905 0.02553979120555343
0.3804134537075954 0.053551446680923716 0.002695599852271968
0.3630376935490927 0.01627787500076843 0.012143176865612481
0.36365569202457115 0.005063527170034797 0.01615128005026266
0.36685356968301963 0.0007532097041971933 0.017204415409346738
0.37046307153980695 -0.0010838582225069257 0.017448845404002586
0.3743208546093473 -0.0020826807888971776 0.01802104582847785
0.37830064256517143 -0.0033542441614449825 0.019451629896888024
0.3819782148592761 -0.006170414899013135 0.022253143090698098
0.3840855026013136 -0.012911426650948245 0.027307648451572086
0.38094010880246837 -0.02935816688011832 0.03556335794200705
0.36254050137832755 -0.06950191843488833 0.046524742968530146
0.4513324915971851 0.03648422156425463 -0.021094711935170464
0.4352667769803307 0.007088549813188454 0.002205735755651647
0.43637059144911194 0.0009293257023084867 0.01143813575104731
0.4386493548779312 -0.001502168563569116 0.01414376960684579
0.44119387962661627 -0.002600641189387308 0.015217622332720018
0.4441943572665979 -0.003259760052504285 0.01652997870021525
0.4475437926403216 -0.004335431803198087 0.01870590364549966
0.45066918976250453 -0.00687201713343658 0.02244723614216516
0.45199934721047874 -0.012923790416282537 0.029325103195742403
0.44782771202891236 -0.027212329523985168 0.04302657231603591
0.430435880637888 -0.061993690589870136 0.06224988366800975
0.5150997181931397 0.01875770227548542 -0.038982742001032265
0.5019935376181639 0.000614936718043272 -0.0034181302901080436
0.5019874168293785 -0.0008383530543067138 0.008006096666749351
0.5023157637143001 -0.0020807613944943707 0.010274584675671192
0.5032481125398338 -0.002623351750575877 0.01176421637351997
0.5050171823434956 -0.003000353506789524 0.013514484801978787
0.5075136530257054 -0.003704650841991182 0.015981728564089304
0.5100334076835386 -0.005392293176449287 0.019721786123859174
0.5108920440519195 -0.009431267433769059 0.026105938699824787
0.5069454436344413 -0.018168173041956753 0.04117529678877733
0.49199141892408516 -0.04138895680331101 0.06793906428541506
0.5612461799054922 0.004966527578139859 -0.03982496134007751
0.5545667479865449 -0.0010308614674072148 -0.0001027735426222256
0.5549174434951895 -0.0006107328340421032 0.004798929153767514
0.5551468289452768 -0.001133266378925754 0.006187028685347012
0.5557612413693639 -0.0013233166961912324 0.007314312911438196
0.5570106747546801 -0.0014882926961651813 0.008803532832676873
0.5588824687311068 -0.00175961761631606 0.010644422026346752
0.5607327480697575 -0.002378799924827602 0.013020588869366929
0.5612091605534202 -0.003789674580123625 0.01698808703819656
0.5584545499122621 -0.006683250119144199 0.025312518326159494
0.5487001604657576 -0.014572522857176343 0.05352465435043219
0.6 0.0 0.0
0.6 0.0 0.0
0.6 0.0 0.0
0.6 0.0 0.0
0.6 0.0 0.0
0.6 0.0 0.0
0.6 0.0 0.0
0.6 0.0 0.0
0.6 0.0 0.0
0.6 0.0 0.0
0.6 0.0 0.0
0.0 0.0 0.0
0.0 0.0 0.0
0.0 0.0 0.0
0.0 0.0 0.0
0.0 0.0 0.0
0.0 0.0 0.0
0.0 0.0 0.0
0.0 0.0 0.0
0.0 0.0 0.0
0.0 0.0 0.0
0.0 0.0 0.0
0.05917406714540824 0.011913777662135082 0.03729324478242364
0.050653585964278935 0.004331680685919905 0.01816508428683057
0.04775378919547469 0.0022513118787377846 0.012018192020886484
0.04705031764571963 0.0011893141443515048 0.008854613830955812
0.04757087327434586 0.0007421091578833634 0.007063241582579241
0.048511654071589604 0.0005084494095553224 0.00591374896744119
0.0495284626118644 0.0003102378052704635 0.005119997065233167
0.05067447883499096 8.250560545593826e-06 0.004513860421567904
0.052241996499621975 -0.0007202329124044598 0.0036634564302151775
0.054677790879587004 -0.0017679866813320921 -0.0005890576034823603
0.053147105982775306 -0.01009258041652505 -0.028983160110699808
0.11959151014038373 0.03736460003781622 0.048516664127867336
0.10414647824004905 0.015534973450261048 0.030469696577380405
0.09847015687540879 0.007794731017527353 0.019284875138520743
0.09712627911534354 0.004244747154262413 0.014487265168607268
0.09784329819177982 0.0025546472684886126 0.011806280084004604
0.09941450210715225 0.0016063931938828523 0.010260382124797698
0.10128579153425597 0.0007869398239107877 0.009288362305229829
0.10341259956292782 -0.0004647504648204398 0.008391006486978702
0.10606789174991145 -0.002857873108348797 0.006469180179190831
0.10877329774530842 -0.0076854395646732306 -0.0029586014058657177
0.10215631979075888 -0.02849882060296285 -0.02881591610695388
0.18192601381522422 0.06030923892339467 0.045728195841276895
0.16306294885480788 0.0271532149711139 0.03251117160507734
0.15623361397678281 0.013103785704615473 0.02252565247674334
0.15521231894150225 0.006889251118644124 0.017301003553293934
0.15672113425939427 0.003810982121753089 0.014620479843024989
0.15931230476540295 0.002036024774883075 0.013210907761768616
0.16230075850796857 0.0004555982380134056 0.012419088424847855
0.16542382621839366 -0.001978918259165852 0.011559119902054462
0.16861210069058194 -0.006533191355953727 0.00890153684071856
0.17030182131133578 -0.016705818160952863 0.0015536220410832904
0.15911872980026118 -0.048262070991912806 -0.015890068256591065
0.24749406051158296 0.07240122675089 0.03481252937212653
0.22778791882324328 0.033152751834041434 0.027404238367898945
0.22168363397562094 0.01551571717578443 0.021372821555406492
0.22174034461722292 0.007663198240798138 0.017704499492454687
0.22417012759197377 0.003726213859500918 0.01576292296753262
0.2275608863854866 0.0013763683571448616 0.01484714719918595
0.2312330564937818 -0.0008340416885053898 0.014471402085034696
0.23473632501676792 -0.004277750752618444 0.014063184145410497
0.2373953530959005 -0.010928008120921588 0.012741720196417528
0.23641133924559662 -0.025854312415326906 0.009484672077600804
0.2209601557745449 -0.06439907551335403 0.0018538902987197809
0.31426921500946897 0.073028297462994 0.019048893344103413
0.29573318573778434 0.032112003181460846 0.018550613460999822
0.29177204996570266 0.014451046978880057 0.017283912915551584
0.29315285302158545 0.0065232966928374485 0.01615717157113794
0.29628316359361756 0.0025030250764187635 0.015471155070618903
0.2999999999999987 6.21277723451496e-18 0.015233458967978428
0.30371683640638003 -0.0025030250764186608 0.015471155070618966
0.3068471469784123 -0.006523296692837247 0.016157171571138024
0.3082279500342951 -0.014451046978879969 0.0172839129155516
0.3042668142622136 -0.032112003181460666 0.018550613460999774
0.2857307849905289 -0.07302829746299395 0.01904889334410325
0.3790398442254533 0.06439907551335396 0.0018538902987199186
0.36358866075440166 0.02585431241532705 0.009484672077600833
0.36260464690409766 0.010928008120921725 0.012741720196417498
0.36526367498323026 0.00427775075261856 0.01406318414541047
0.3687669435062164 0.0008340416885054434 0.0144714020850347
0.3724391136145116 -0.0013763683571448586 0.014847147199185964
0.37582987240802446 -0.0037262138595008125 0.015762922967532678
0.3782596553827753 -0.007663198240797984 0.017704499492454714
0.3783163660243772 -0.015515717175784332 0.02137282155540653
0.3722120811767548 -0.033152751834041386 0.027404238367898945
0.35250593948841513 -0.07240122675089003 0.034812529372126456
0.44088127019973716 0.048262070991912744 -0.015890068256591002
0.42969817868866267 0.016705818160952936 0.0015536220410833326
0.4313878993094165 0.006533191355953903 0.00890153684071862
0.4345761737816047 0.001978918259165898 0.011559119902054438
0.43769924149202966 -0.00045559823801343165 0.012419088424847895
0.44068769523459544 -0.002036024774883081 0.013210907761768639
0.44327886574060416 -0.0038109821217529477 0.014620479843025072
0.4447876810584962 -0.0068892511186440086 0.017301003553293937
0.4437663860232156 -0.013103785704615437 0.022525652476743395
0.4369370511451906 -0.027153214971113913 0.032511171605077424
0.41807398618477415 -0.06030923892339489 0.04572819584127704
0.4978436802092396 0.028498820602962834 -0.028815916106953957
0.49122670225469 0.007685439564673254 -0.0029586014058657515
0.4939321082500871 0.00285787310834896 0.006469180179190874
0.49658740043707067 0.0004647504648204689 0.008391006486978762
0.49871420846574255 -0.000786939823910838 0.009288362305229957
0.5005854978928463 -0.001606393193882856 0.010260382124797785
0.502156701808219 -0.0025546472684884664 0.011806280084004667
0.5028737208846554 -0.00424474715426235 0.014487265168607317
0.5015298431245901 -0.007794731017527387 0.019284875138520837
0.49585352175994996 -0.015534973450261124 0.030469696577380707
0.48040848985961504 -0.03736460003781654 0.048516664127867905
0.5468528940172237 0.010092580416525072 -0.0289831601107
0.5453222091204118 0.001767986681332062 -0.000589057603482326
0.547758003500377 0.000720232912404515 0.0036634564302152842
0.5493255211650079 -8.250560545576123e-06 0.004513860421568008
0.5504715373881345 -0.00031023780527049454 0.005119997065233211
0.5514883459284095 -0.0005084494095553488 0.0059137489674412486
0.5524291267256533 -0.0007421091578833087 0.007063241582579273
0.5529496823542795 -0.0011893141443514816 0.008854613830955883
0.5522462108045245 -0.0022513118787378106 0.012018192020886621
0.5493464140357203 -0.004331680685919903 0.01816508428683084
0.5408259328545909 -0.011913777662135194 0.03729324478242425
0.6 0.0 0.0
0.6 0.0 0.0
0.6 0.0 0.0
0.6 0.0 0.0
0.6 0.0 0.0
0.6 0.0 0.0
0.6 0.0 0.0
0.6 0.0 0.0
0.6 0.0 0.0
0.6 0.0 0.0
0.6 0.0 0.0
0.0 0.0 0.0
0.0 0.0 0.0
0.0 0.0 0.0
0.0 0.0 0.0
0.0 0.0 0.0
0.0 0.0 0.0
0.0 0.0 0.0
0.0 0.0 0.0
0.0 0.0 0.0
0.0 0.0 0.0
0.0 0.0 0.0
0.06557649897644349 0.012121824442362055 0.024619306925747507
0.055614999153731415 0.00429907923163431 0.012985607654982523
0.05224676763944106 0.0024040360884879865 0.008845711446954115
0.05095660680356833 0.001248628463032577 0.006390595401857466
0.05094461015770407 0.0007391778621146088 0.004976400576371831
0.051514191569617576 0.0004294119437126848 0.0041620821091451895
0.05243025467701304 0.00014565476043471373 0.0036715239589536278
0.05377083206395868 -0.0003085613284840927 0.00330765436309441
0.05595781656803757 -0.001243599261969392 0.002649152320597933
0.059500799558384776 -0.0029400574343128264 -0.00033291289617110606
0.061639446933251546 -0.010835573902474738 -0.018328864478184017
0.12596343527718792 0.03643255221276605 0.032810297385939324
0.11021403784880227 0.01567544450880463 0.021699420155550334
0.10388854442144947 0.007840181297103191 0.014020224593600722
0.10182334140188487 0.0041215947083396015 0.01044487611932367
0.10194175739130203 0.002274290054480069 0.00845731526190948
0.10316609011890815 0.0011668398774856037 0.007393358082618609
0.10502800371913937 0.00015284429073865615 0.006773553680367867
0.10743502079674748 -0.0014065605280253652 0.00613570152424079
0.11057248069203818 -0.004255677122441047 0.004552242702845473
0.11399618515624765 -0.010530589969440611 -0.002105697601348627
0.11261735746440618 -0.029822062499587732 -0.01829176530507746
0.18698360968310357 0.05805946935397375 0.03176847555179854
0.16888882538932218 0.02746610796030331 0.023221984136862498
0.16136715757542444 0.013395715209311508 0.01648852452581581
0.15944193857035807 0.00688464947427104 0.012640701290497722
0.1602294016989164 0.00356409590609293 0.010708408188694866
0.16236594533513896 0.001514571444327764 0.009742615599767187
0.1651977462605092 -0.00039356341715940694 0.009193617596877575
0.16835273739218704 -0.003237962993176262 0.008430704706676407
0.1715035216241103 -0.00842690015739512 0.0061502062277547466
0.17295744181224096 -0.02015253274300481 0.001072845562447971
0.16657510460696576 -0.048936356826669844 -0.0097722034828769
0.25049356645957427 0.07009607912785747 0.02466200196312305
0.2324287665766899 0.03415702569889866 0.019785218433021844
0.22543833702800153 0.016448686110874872 0.015604663077214455
0.22447511807425655 0.008124644339119528 0.013020011538519343
0.22621033680114905 0.0038008737663514846 0.011709491781504103
0.22915876020499007 0.0010540836486067928 0.0111157389745391
0.23254220698278064 -0.0015873478733471253 0.010809930390615934
0.23574976087008845 -0.005537434367564917 0.01029083026669964
0.2378863116077327 -0.012900759961227682 0.009061134013769878
0.23614958028984714 -0.028951503765171298 0.006914632795145271
0.22453668761465226 -0.06389222855536861 0.0019942254180923646
0.3142372158863725 0.07155705639230785 0.013762276243539082
0.298387427707 0.034293327025818485 0.013539386113464839
0.29348150196246114 0.01606665000044175 0.012539876920125266
0.2940053124806789 0.007490714573477202 0.011907489440417574
0.29662007993058 0.0029587621738192205 0.011595784139391076
0.29999999999999905 -1.3041137074856367e-17 0.011491392177974801
0.30337992006941805 -0.002958762173819215 0.011595784139391035
0.30599468751931924 -0.007490714573477066 0.011907489440417598
0.3065184980375371 -0.016066650000441645 0.01253987692012524
0.3016125722929983 -0.03429332702581852 0.013539386113464832
0.2857627841136257 -0.07155705639230797 0.013762276243538926
0.3754633123853458 0.06389222855536858 0.001994225418092558
0.363850419710151 0.028951503765171426 0.006914632795145342
0.3621136883922654 0.012900759961227774 0.009061134013769883
0.3642502391299096 0.005537434367565122 0.010290830266699646
0.36745779301721726 0.0015873478733470698 0.010809930390615946
0.37084123979500777 -0.0010540836486068275 0.011115738974539106
0.37378966319884893 -0.0038008737663514595 0.011709491781504192
0.3755248819257415 -0.00812464433911942 0.01302001153851939
0.37456166297199645 -0.01644868611087479 0.015604663077214496
0.3675712334233081 -0.034157025698898655 0.019785218433021817
0.3495064335404238 -0.07009607912785754 0.024662001963122925
0.4334248953930326 0.04893635682666975 -0.009772203482876832
0.4270425581877575 0.020152532743004863 0.001072845562448049
0.42849647837588806 0.008426900157395171 0.0061502062277548255
0.4316472626078114 0.00323796299317643 0.00843070470667644
0.434802253739489 0.00039356341715933576 0.009193617596877646
0.4376340546648592 -0.0015145714443278316 0.009742615599767197
0.4397705983010819 -0.003564095906092953 0.0107084081886949
0.4405580614296403 -0.006884649474270978 0.012640701290497727
0.438632842424574 -0.013395715209311527 0.016488524525815847
0.4311111746106763 -0.027466107960303406 0.023221984136862526
0.41301639031689485 -0.05805946935397395 0.031768475551798646
0.48738264253559244 0.029822062499587656 -0.018291765305077458
0.486003814843751 0.010530589969440621 -0.0021056976013486563
0.48942751930796047 0.004255677122441057 0.00455224270284554
0.4925649792032512 0.001406560528025482 0.00613570152424088
0.4949719962808592 -0.00015284429073871594 0.006773553680367923
0.49683390988109044 -0.0011668398774856746 0.007393358082618599
0.4980582426086966 -0.002274290054480089 0.008457315261909503
0.49817665859811383 -0.004121594708339579 0.010444876119323668
0.4961114555785492 -0.007840181297103213 0.014020224593600753
0.4897859621511963 -0.01567544450880476 0.021699420155550524
0.47403656472281064 -0.03643255221276618 0.0328102973859397
0.5383605530667471 0.010835573902474652 -0.018328864478184208
0.5404992004416139 0.0029400574343128633 -0.0003329128961710912
0.5440421834319611 0.0012435992619693917 0.0026491523205980022
0.54622916793604 0.0003085613284841486 0.0033076543630945108
0.5475697453229857 -0.00014565476043472257 0.003671523958953614
0.5484858084303812 -0.0004294119437127038 0.004162082109145212
0.5490553898422947 -0.0007391778621146215 0.004976400576371829
0.5490433931964305 -0.001248628463032592 0.006390595401857533
0.5477532323605578 -0.002404036088487991 0.008845711446954188
0.5443850008462675 -0.0042990792316343306 0.012985607654982693
0.5344235010235553 -0.012121824442362057 0.02461930692574787
0.6 0.0 0.0
0.6 0.0 0.0
0.6 0.0 0.0
0.6 0.0 0.0
0.6 0.0 0.0
0.6 0.0 0.0
0.6 0.0 0.0
0.6 0.0 0.0
0.6 0.0 0.0
0.6 0.0 0.0
0.6 0.0 0.0
0.0 0.0 0.0
0.0 0.0 0.0
0.0 0.0 0.0
0.0 0.0 0.0
0.0 0.0 0.0
0.0 0.0 0.0
0.0 0.0 0.0
0.0 0.0 0.0
0.0 0.0 0.0
0.0 0.0 0.0
0.0 0.0 0.0
0.06890954690308078 0.011927069037071504 0.014639882596677319
0.05789935013306155 0.004037710712169468 0.008389393252313644
0.05454437404647871 0.0023720782023388047 0.005935384736561537
0.053187727846643926 0.0012315203429855055 0.004281155141985868
0.05303640480636919 0.0007007420013795685 0.0032720667105247047
0.053490493722029325 0.00036618150652585103 0.0027187171457597084
0.05437821474384915 5.1186297270141236e-05 0.002413567089189367
0.05580969578352363 -0.0004285300875251551 0.002183923481575348
0.05816716773125498 -0.0014244386644529578 0.001645287708704658