# vtk DataFile Version 3.0
Some data
ASCII
DATASET UNSTRUCTURED_GRID
POINTS 1331 float
0.0 0.0 0.0
0.1 0.0 0.0
0.2 0.0 0.0
0.30000000000000004 0.0 0.0
0.4 0.0 0.0
0.5 0.0 0.0
0.6000000000000001 0.0 0.0
0.7000000000000001 0.0 0.0
0.8 0.0 0.0
0.9 0.0 0.0
1.0 0.0 0.0
0.0 0.1 0.0
0.1 0.1 0.0
0.2 0.1 0.0
0.30000000000000004 0.1 0.0
0.4 0.1 0.0
0.5 0.1 0.0
0.6000000000000001 0.1 0.0
0.7000000000000001 0.1 0.0
0.8 0.1 0.0
0.9 0.1 0.0
1.0 0.1 0.0
0.0 0.2 0.0
0.1 0.2 0.0
0.2 0.2 0.0
0.30000000000000004 0.2 0.0
0.4 0.2 0.0
0.5 0.2 0.0
0.6000000000000001 0.2 0.0
0.7000000000000001 0.2 0.0
0.8 0.2 0.0
0.9 0.2 0.0
1.0 0.2 0.0
0.0 0.30000000000000004 0.0
0.1 0.30000000000000004 0.0
0.2 0.30000000000000004 0.0
0.30000000000000004 0.30000000000000004 0.0
0.4 0.30000000000000004 0.0
0.5 0.30000000000000004 0.0
0.6000000000000001 0.30000000000000004 0.0
0.7000000000000001 0.30000000000000004 0.0
0.8 0.30000000000000004 0.0
0.9 0.30000000000000004 0.0
1.0 0.30000000000000004 0.0
0.0 0.4 0.0
0.1 0.4 0.0
0.2 0.4 0.0
0.30000000000000004 0.4 0.0
0.4 0.4 0.0
0.5 0.4 0.0
0.6000000000000001 0.4 0.0
0.7000000000000001 0.4 0.0
0.8 0.4 0.0
0.9 0.4 0.0
1.0 0.4 0.0
0.0 0.5 0.0
0.1 0.5 0.0
0.2 0.5 0.0
0.30000000000000004 0.5 0.0
0.4 0.5 0.0
0.5 0.5 0.0
0.6000000000000001 0.5 0.0
0.7000000000000001 0.5 0.0
0.8 0.5 0.0
0.9 0.5 0.0
1.0 0.5 0.0
0.0 0.6000000000000001 0.0
0.1 0.6000000000000001 0.0
0.2 0.6000000000000001 0.0
0.30000000000000004 0.6000000000000001 0.0
0.4 0.6000000000000001 0.0
0.5 0.6000000000000001 0.0
0.6000000000000001 0.6000000000000001 0.0
0.7000000000000001 0.6000000000000001 0.0
0.8 0.6000000000000001 0.0
0.9 0.6000000000000001 0.0
1.0 0.6000000000000001 0.0
0.0 0.7000000000000001 0.0
0.1 0.7000000000000001 0.0
0.2 0.7000000000000001 0.0
0.30000000000000004 0.7000000000000001 0.0
0.4 0.7000000000000001 0.0
0.5 0.7000000000000001 0.0
0.6000000000000001 0.7000000000000001 0.0
0.7000000000000001 0.7000000000000001 0.0
0.8 0.7000000000000001 0.0
0.9 0.7000000000000001 0.0
1.0 0.7000000000000001 0.0
0.0 0.8 0.0
0.1 0.8 0.0
0.2 0.8 0.0
0.30000000000000004 0.8 0.0
0.4 0.8 0.0
0.5 0.8 0.0
0.6000000000000001 0.8 0.0
0.7000000000000001 0.8 0.0
0.8 0.8 0.0
0.9 0.8 0.0
1.0 0.8 0.0
0.0 0.9 0.0
0.1 0.9 0.0
0.2 0.9 0.0
0.30000000000000004 0.9 0.0
0.4 0.9 0.0
0.5 0.9 0.0
0.6000000000000001 0.9 0.0
0.7000000000000001 0.9 0.0
0.8 0.9 0.0
0.9 0.9 0.0
1.0 0.9 0.0
0.0 1.0 0.0
0.1 1.0 0.0
0.2 1.0 0.0
0.30000000000000004 1.0 0.0
0.4 1.0 0.0
0.5 1.0 0.0
0.6000000000000001 1.0 0.0
0.7000000000000001 1.0 0.0
0.8 1.0 0.0
0.9 1.0 0.0
1.0 1.0 0.0
0.0 0.0 0.1
0.1 0.0 0.1
0.2 0.0 0.1
0.30000000000000004 0.0 0.1
0.4 0.0 0.1
0.5 0.0 0.1
0.6000000000000001 0.0 0.1
0.7000000000000001 0.0 0.1
0.8 0.0 0.1
0.9 0.0 0.1
1.0 0.0 0.1
0.0 0.1 0.1
0.1 0.1 0.1
0.2 0.1 0.1
0.30000000000000004 0.1 0.1
0.4 0.1 0.1
0.5 0.1 0.1
0.6000000000000001 0.1 0.1
0.7000000000000001 0.1 0.1
0.8 0.1 0.1
0.9 0.1 0.1
1.0 0.1 0.1
0.0 0.2 0.1
0.1 0.2 0.1
0.2 0.2 0.1
0.30000000000000004 0.2 0.1
0.4 0.2 0.1
0.5 0.2 0.1
0.6000000000000001 0.2 0.1
0.7000000000000001 0.2 0.1
0.8 0.2 0.1
0.9 0.2 0.1
1.0 0.2 0.1
0.0 0.30000000000000004 0.1
0.1 0.30000000000000004 0.1
0.2 0.30000000000000004 0.1
0.30000000000000004 0.30000000000000004 0.1
0.4 0.30000000000000004 0.1
0.5 0.30000000000000004 0.1
0.6000000000000001 0.30000000000000004 0.1
0.7000000000000001 0.30000000000000004 0.1
0.8 0.30000000000000004 0.1
0.9 0.30000000000000004 0.1
1.0 0.30000000000000004 0.1
0.0 0.4 0.1
0.1 0.4 0.1
0.2 0.4 0.1
0.30000000000000004 0.4 0.1
0.4 0.4 0.1
0.5 0.4 0.1
0.6000000000000001 0.4 0.1
0.7000000000000001 0.4 0.1
0.8 0.4 0.1
0.9 0.4 0.1
1.0 0.4 0.1
0.0 0.5 0.1
0.1 0.5 0.1
0.2 0.5 0.1
0.30000000000000004 0.5 0.1
0.4 0.5 0.1
0.5 0.5 0.1
0.6000000000000001 0.5 0.1
0.7000000000000001 0.5 0.1
0.8 0.5 0.1
0.9 0.5 0.1
1.0 0.5 0.1
0.0 0.6000000000000001 0.1
0.1 0.6000000000000001 0.1
0.2 0.6000000000000001 0.1
0.30000000000000004 0.6000000000000001 0.1
0.4 0.6000000000000001 0.1
0.5 0.6000000000000001 0.1
0.6000000000000001 0.6000000000000001 0.1
0.7000000000000001 0.6000000000000001 0.1
0.8 0.6000000000000001 0.1
0.9 0.6000000000000001 0.1
1.0 0.6000000000000001 0.1
0.0 0.7000000000000001 0.1
0.1 0.7000000000000001 0.1
0.2 0.7000000000000001 0.1
0.30000000000000004 0.7000000000000001 0.1
0.4 0.7000000000000001 0.1
0.5 0.7000000000000001 0.1
0.6000000000000001 0.7000000000000001 0.1
0.7000000000000001 0.7000000000000001 0.1
0.8 0.7000000000000001 0.1
0.9 0.7000000000000001 0.1
1.0 0.7000000000000001 0.1
0.0 0.8 0.1
0.1 0.8 0.1
0.2 0.8 0.1
0.30000000000000004 0.8 0.1
0.4 0.8 0.1
0.5 0.8 0.1
0.6000000000000001 0.8 0.1
0.7000000000000001 0.8 0.1
0.8 0.8 0.1
0.9 0.8 0.1
1.0 0.8 0.1
0.0 0.9 0.1
0.1 0.9 0.1
0.2 0.9 0.1
0.30000000000000004 0.9 0.1
0.4 0.9 0.1
0.5 0.9 0.1
0.6000000000000001 0.9 0.1
0.7000000000000001 0.9 0.1
0.8 0.9 0.1
0.9 0.9 0.1
1.0 0.9 0.1
0.0 1.0 0.1
0.1 1.0 0.1
0.2 1.0 0.1
0.30000000000000004 1.0 0.1
0.4 1.0 0.1
0.5 1.0 0.1
0.6000000000000001 1.0 0.1
0.7000000000000001 1.0 0.1
0.8 1.0 0.1
0.9 1.0 0.1
1.0 1.0 0.1
0.0 0.0 0.2
0.1 0.0 0.2
0.2 0.0 0.2
0.30000000000000004 0.0 0.2
0.4 0.0 0.2
0.5 0.0 0.2
0.6000000000000001 0.0 0.2
0.7000000000000001 0.0 0.2
0.8 0.0 0.2
0.9 0.0 0.2
1.0 0.0 0.2
0.0 0.1 0.2
0.1 0.1 0.2
0.2 0.1 0.2
0.30000000000000004 0.1 0.2
0.4 0.1 0.2
0.5 0.1 0.2
0.6000000000000001 0.1 0.2
0.7000000000000001 0.1 0.2
0.8 0.1 0.2
0.9 0.1 0.2
1.0 0.1 0.2
0.0 0.2 0.2
0.1 0.2 0.2
0.2 0.2 0.2
0.30000000000000004 0.2 0.2
0.4 0.2 0.2
0.5 0.2 0.2
0.6000000000000001 0.2 0.2
0.7000000000000001 0.2 0.2
0.8 0.2 0.2
0.9 0.2 0.2
1.0 0.2 0.2
0.0 0.30000000000000004 0.2
0.1 0.30000000000000004 0.2
0.2 0.30000000000000004 0.2
0.30000000000000004 0.30000000000000004 0.2
0.4 0.30000000000000004 0.2
0.5 0.30000000000000004 0.2
0.6000000000000001 0.30000000000000004 0.2
0.7000000000000001 0.30000000000000004 0.2
0.8 0.30000000000000004 0.2
0.9 0.30000000000000004 0.2
1.0 0.30000000000000004 0.2
0.0 0.4 0.2
0.1 0.4 0.2
0.2 0.4 0.2
0.30000000000000004 0.4 0.2
0.4 0.4 0.2
0.5 0.4 0.2
0.6000000000000001 0.4 0.2
0.7000000000000001 0.4 0.2
0.8 0.4 0.2
0.9 0.4 0.2
1.0 0.4 0.2
0.0 0.5 0.2
0.1 0.5 0.2
0.2 0.5 0.2
0.30000000000000004 0.5 0.2
0.4 0.5 0.2
0.5 0.5 0.2
0.6000000000000001 0.5 0.2
0.7000000000000001 0.5 0.2
0.8 0.5 0.2
0.9 0.5 0.2
1.0 0.5 0.2
0.0 0.6000000000000001 0.2
0.1 0.6000000000000001 0.2
0.2 0.6000000000000001 0.2
0.30000000000000004 0.6000000000000001 0.2
0.4 0.6000000000000001 0.2
0.5 0.6000000000000001 0.2
0.6000000000000001 0.6000000000000001 0.2
0.7000000000000001 0.6000000000000001 0.2
0.8 0.6000000000000001 0.2
0.9 0.6000000000000001 0.2
1.0 0.6000000000000001 0.2
0.0 0.7000000000000001 0.2
0.1 0.7000000000000001 0.2
0.2 0.7000000000000001 0.2
0.30000000000000004 0.7000000000000001 0.2
0.4 0.7000000000000001 0.2
0.5 0.7000000000000001 0.2
0.6000000000000001 0.7000000000000001 0.2
0.7000000000000001 0.7000000000000001 0.2
0.8 0.7000000000000001 0.2
0.9 0.7000000000000001 0.2
1.0 0.7000000000000001 0.2
0.0 0.8 0.2
0.1 0.8 0.2
0.2 0.8 0.2
0.30000000000000004 0.8 0.2
0.4 0.8 0.2
0.5 0.8 0.2
0.6000000000000001 0.8 0.2
0.7000000000000001 0.8 0.2
0.8 0.8 0.2
0.9 0.8 0.2
1.0 0.8 0.2
0.0 0.9 0.2
0.1 0.9 0.2
0.2 0.9 0.2
0.30000000000000004 0.9 0.2
0.4 0.9 0.2
0.5 0.9 0.2
0.6000000000000001 0.9 0.2
0.7000000000000001 0.9 0.2
0.8 0.9 0.2
0.9 0.9 0.2
1.0 0.9 0.2
0.0 1.0 0.2
0.1 1.0 0.2
0.2 1.0 0.2
0.30000000000000004 1.0 0.2
0.4 1.0 0.2
0.5 1.0 0.2
0.6000000000000001 1.0 0.2
0.7000000000000001 1.0 0.2
0.8 1.0 0.2
0.9 1.0 0.2
1.0 1.0 0.2
0.0 0.0 0.30000000000000004
0.1 0.0 0.30000000000000004
0.2 0.0 0.30000000000000004
0.30000000000000004 0.0 0.30000000000000004
0.4 0.0 0.30000000000000004
0.5 0.0 0.30000000000000004
0.6000000000000001 0.0 0.30000000000000004
0.7000000000000001 0.0 0.30000000000000004
0.8 0.0 0.30000000000000004
0.9 0.0 0.30000000000000004
1.0 0.0 0.30000000000000004
0.0 0.1 0.30000000000000004
0.1 0.1 0.30000000000000004
0.2 0.1 0.30000000000000004
0.30000000000000004 0.1 0.30000000000000004
0.4 0.1 0.30000000000000004
0.5 0.1 0.30000000000000004
0.6000000000000001 0.1 0.30000000000000004
0.7000000000000001 0.1 0.30000000000000004
0.8 0.1 0.30000000000000004
0.9 0.1 0.30000000000000004
1.0 0.1 0.30000000000000004
0.0 0.2 0.30000000000000004
0.1 0.2 0.30000000000000004
0.2 0.2 0.30000000000000004
0.30000000000000004 0.2 0.30000000000000004
0.4 0.2 0.30000000000000004
0.5 0.2 0.30000000000000004
0.6000000000000001 0.2 0.30000000000000004
0.7000000000000001 0.2 0.30000000000000004
0.8 0.2 0.30000000000000004
0.9 0.2 0.30000000000000004
1.0 0.2 0.30000000000000004
0.0 0.30000000000000004 0.30000000000000004
0.1 0.30000000000000004 0.30000000000000004
0.2 0.30000000000000004 0.30000000000000004
0.30000000000000004 0.30000000000000004 0.30000000000000004
0.4 0.30000000000000004 0.30000000000000004
0.5 0.30000000000000004 0.30000000000000004
0.6000000000000001 0.30000000000000004 0.30000000000000004
0.7000000000000001 0.30000000000000004 0.30000000000000004
0.8 0.30000000000000004 0.30000000000000004
0.9 0.30000000000000004 0.30000000000000004
1.0 0.30000000000000004 0.30000000000000004
0.0 0.4 0.30000000000000004
0.1 0.4 0.30000000000000004
0.2 0.4 0.30000000000000004
0.30000000000000004 0.4 0.30000000000000004
0.4 0.4 0.30000000000000004
0.5 0.4 0.30000000000000004
0.6000000000000001 0.4 0.30000000000000004
0.7000000000000001 0.4 0.30000000000000004
0.8 0.4 0.30000000000000004
0.9 0.4 0.30000000000000004
1.0 0.4 0.30000000000000004
0.0 0.5 0.30000000000000004
0.1 0.5 0.30000000000000004
0.2 0.5 0.30000000000000004
0.30000000000000004 0.5 0.30000000000000004
0.4 0.5 0.30000000000000004
0.5 0.5 0.30000000000000004
0.6000000000000001 0.5 0.30000000000000004
0.7000000000000001 0.5 0.30000000000000004
0.8 0.5 0.30000000000000004
0.9 0.5 0.30000000000000004
1.0 0.5 0.30000000000000004
0.0 0.6000000000000001 0.30000000000000004
0.1 0.6000000000000001 0.30000000000000004
0.2 0.6000000000000001 0.30000000000000004
0.30000000000000004 0.6000000000000001 0.30000000000000004
[...]
POINT_DATA 1331
VECTORS Disp float
0.0 0.0 0.0
0.0 0.0 0.0
0.0 0.0 0.0
0.0 0.0 0.0
0.0 0.0 0.0
0.0 0.0 0.0
0.0 0.0 0.0
0.0 0.0 0.0
0.0 0.0 0.0
0.0 0.0 0.0
0.0 0.0 0.0
0.024289547473464894 0.01066825013901667 0.028474614363373313
0.0183784583128428 0.004710138933619837 0.013951770242932999
0.016567374852676495 0.002376552731148483 0.008978456857786915
0.016922934513079895 0.0012520892145374395 0.0061336241568441365
0.017885134802945474 0.0007599958130376526 0.004171307873793535
0.01865447133836892 0.0005476790356680357 0.0025959010432515875
0.018901558692080354 0.0004561474865561989 0.0012264785366772517
0.018538139353448044 0.0003397372205765333 -4.633079852018208e-05
0.017813524070653532 -3.8389552709714044e-05 -0.0012608199262908774
0.017677472890395944 -0.0006868236296595137 -0.004098355991472194
0.017002010558272884 -0.0071086510837683175 -0.024163286496608514
0.04884344219643649 0.0280063287063491 0.033944067812474416
0.0422078409051574 0.012534137840422833 0.020521185942623588
0.040241981179797603 0.00571108146207111 0.012167605635762392
0.04075553840705819 0.0027316742225814575 0.008162749610362726
0.04193074378555802 0.0014666951718647113 0.005445277251729311
0.04293122751685288 0.0009665255747934493 0.0034297898184868086
0.0434416619925507 0.0007351204560149647 0.0017687060457496867
0.04341325342590299 0.0003459349745682202 0.00020135492872163253
0.04307848073761672 -0.0007126190826097068 -0.0016321610442023224
0.04307679523457438 -0.0036381356355657166 -0.007051321520460371
0.04054355689829736 -0.019352557951301863 -0.022804453886306485
0.07999321184075503 0.039944152941226295 0.029621731384641976
0.07345272078448697 0.017879872793427787 0.01929479662856478
0.07162929228123327 0.007677427653757848 0.012304481952991823
0.07215937532297353 0.0033906743066546667 0.008311600632086578
0.07335420099694615 0.0015953706627055279 0.005725343623946281
0.074502709215849 0.0008909589886661534 0.003935040995087709
0.075342626804477 0.00045390872724736426 0.002566357269557535
0.07586922077503633 -0.0003697963341187858 0.0013075134750389424
0.07629538756521184 -0.0025254189144497882 -0.0006410115443012445
0.07688469058398097 -0.008351199024482212 -0.0043323054231314264
0.07320227700217607 -0.031037689296134586 -0.013097269253167534
0.11605153976638723 0.0451555974334951 0.020100626714845478
0.10961849252818132 0.019291098419689335 0.013724873695230792
0.10833157797924964 0.008004945472803216 0.009765314858996996
0.10886190048851398 0.0032460360148331823 0.0069615275735869
0.10989724190734226 0.001297113981055596 0.005148918835445486
0.1109650056862455 0.0005024744947311762 0.0040344283315369885
0.11188030298536568 -0.00013800414440584056 0.0033499686003439534
0.11262363904171382 -0.001456247835297773 0.0028295105331991584
0.11322728848377189 -0.004909152110194437 0.002075538413356458
0.11352736572860589 -0.013278476767504347 0.000627355141447676
0.1086920194116287 -0.03970263456493392 -0.002244903904581881
0.1543184893310876 0.04454913590836315 0.008442137638432469
0.14839039029106027 0.017274495907711414 0.006662979159818454
0.14784413922552675 0.006916636501260795 0.005721329606616109
0.1483203930694258 0.002508032477308508 0.004687257027870773
0.14911209105378084 0.000766757350586158 0.004076063399718591
0.14999999999999986 -2.5304474261876454e-17 0.003871357576340842
0.15088790894621895 -0.0007667573505861327 0.00407606339971867
0.1516796069305741 -0.0025080324773084904 0.004687257027870873
0.1521558607744732 -0.006916636501260747 0.005721329606616195
0.15160960970893964 -0.01727449590771143 0.00666297915981854
0.1456815106689124 -0.044549135908363194 0.008442137638432635
0.19130798058837148 0.03970263456493386 -0.002244903904582076
0.18647263427139424 0.013278476767504361 0.0006273551414475493
0.1867727115162282 0.0049091521101944854 0.0020755384133563
0.18737636095828622 0.0014562478352978057 0.002829510533199059
0.18811969701463438 0.0001380041444058518 0.003349968600343883
0.1890349943137545 -0.0005024744947311977 0.0040344283315369555
0.1901027580926577 -0.001297113981055589 0.0051489188354454625
0.19113809951148594 -0.0032460360148331997 0.0069615275735869595
0.19166842202075024 -0.008004945472803227 0.009765314858997093
0.1903815074718186 -0.019291098419689345 0.01372487369523091
0.18394846023361264 -0.045155597433495134 0.020100626714845565
0.22679772299782414 0.031037689296134548 -0.013097269253167686
0.22311530941601926 0.008351199024482241 -0.00433230542313151
0.22370461243478837 0.0025254189144498012 -0.0006410115443013399
0.2241307792249638 0.0003697963341188516 0.0013075134750387594
0.224657373195523 -0.00045390872724735537 0.0025663572695573994
0.22549729078415096 -0.0008909589886661557 0.00393504099508769
0.22664579900305382 -0.0015953706627055454 0.005725343623946307
0.22784062467702645 -0.0033906743066546693 0.008311600632086613
0.22837070771876672 -0.007677427653757873 0.012304481952991891
0.22654727921551304 -0.017879872793427707 0.01929479662856487
0.22000678815924488 -0.03994415294122633 0.02962173138464206
0.25945644310170257 0.01935255795130189 -0.022804453886306517
0.2569232047654256 0.0036381356355657595 -0.00705132152046044
0.25692151926238327 0.0007126190826097445 -0.0016321610442023922
0.256586746574097 -0.0003459349745681649 0.00020135492872155652
0.2565583380074494 -0.0007351204560149654 0.0017687060457496897
0.2570687724831472 -0.0009665255747933956 0.0034297898184868234
0.25806925621444204 -0.0014666951718647321 0.005445277251729341
0.2592444615929419 -0.0027316742225814636 0.008162749610362756
0.2597580188202025 -0.005711081462071131 0.01216760563576241
0.2577921590948427 -0.012534137840422782 0.02052118594262366
0.2511565578035636 -0.02800632870634915 0.03394406781247451
0.282997989441727 0.0071086510837683565 -0.02416328649660841
0.28232252710960404 0.0006868236296595422 -0.004098355991472267
0.2821864759293464 3.838955270972212e-05 -0.0012608199262909526
0.28146186064655193 -0.0003397372205765375 -4.633079852023423e-05
0.2810984413079196 -0.0004561474865561817 0.0012264785366772136
0.28134552866163115 -0.0005476790356680312 0.0025959010432515493
0.28211486519705464 -0.0007599958130376631 0.004171307873793497
0.2830770654869202 -0.0012520892145374237 0.006133624156844094
0.28343262514732354 -0.002376552731148508 0.008978456857786908
0.28162154168715725 -0.004710138933619819 0.01395177024293302
0.27571045252653525 -0.01066825013901666 0.028474614363373455
0.3 0.0 0.0
0.3 0.0 0.0
0.3 0.0 0.0
0.3 0.0 0.0
0.3 0.0 0.0
0.3 0.0 0.0
0.3 0.0 0.0
0.3 0.0 0.0
0.3 0.0 0.0
0.3 0.0 0.0
0.3 0.0 0.0
0.0 0.0 0.0
0.0 0.0 0.0
0.0 0.0 0.0
0.0 0.0 0.0
0.0 0.0 0.0
0.0 0.0 0.0
0.0 0.0 0.0
0.0 0.0 0.0
0.0 0.0 0.0
0.0 0.0 0.0
0.0 0.0 0.0
0.029635882022002465 0.009211294484437286 0.018607925590306065
0.023541309782328376 0.003322821178146783 0.009885859890151531
0.021038032079215195 0.0016512679045380496 0.00622130218478127
0.020293482452889627 0.0007609651248340243 0.004043851147344727
0.020387508431990914 0.00037369842524765984 0.002670083227739343
0.02067805188841998 0.00018959889615806 0.0016568424073377637
0.020878462695841524 8.024390235346373e-05 0.0008334172553475083
0.020989815074935865 -6.915277519057981e-05 8.755084513722148e-05
0.02136947865894768 -0.0004646971060297306 -0.0008135032112796843
0.022884668013531353 -0.0015240761513263684 -0.003504990565743479
0.025644629428823652 -0.00904491096672355 -0.015131501791316442
0.05735346321150123 0.026381573800110462 0.02342438263573384
0.048882458189634506 0.011536577649802867 0.015030939734502346
0.04498682096522786 0.005239487693965813 0.008981992202712
0.043952971130164754 0.002389366315225911 0.0059058404914326765
0.044156632515923694 0.0010915230519686456 0.0039142607287157875
0.044685529778565485 0.0005010246810089755 0.0025182228685307288
0.04518034671767494 0.00010115648678932389 0.0014237792621976204
0.045698260343345676 -0.0005535195529036754 0.0003709509739547597
0.04672571652149391 -0.0020245382423895743 -0.001119354536970416
0.048905080691564816 -0.006470364291718357 -0.005657048913864799
0.05033435918636621 -0.023695474177280424 -0.015197161736822649
0.08807662367838481 0.040472466254866356 0.02121306242384533
0.07966270451808907 0.01900051979547225 0.014598284993397222
0.07581308860182967 0.008332572238842602 0.00942576855526938
0.07492464963592976 0.003630670623454911 0.006318511399568323
0.07524785889867489 0.0015226747828546478 0.00436445868536199
0.07595253462357239 0.0005369565779057403 0.0030638408833859217
0.0767343790592914 -0.0002456554420550614 0.002107862496385925
0.07762133540207385 -0.0015974227375272648 0.0011654364253773977
0.07886517464971114 -0.004624906423630916 -0.0004623018686260407
0.08032451507322323 -0.012838324427132586 -0.003606832754526083
0.07895231548355468 -0.03668412547002754 -0.009188557799415199
0.12154603094208308 0.04807478436504456 0.014590090027516633
0.11414208758553994 0.022554409409841276 0.010650720177262533
0.11120424600462701 0.009739794487038975 0.007558388690925861
0.11068408792799435 0.004108198384747539 0.005459870560481942
0.11106136471181585 0.0015822001162997443 0.004086549549866771
0.11176604743023938 0.00032610463473753604 0.003266629497559061
0.11255331552157537 -0.0008103343140515496 0.002772550723516666
0.11335760110218561 -0.002844978234519967 0.002344347238832487
0.11413268417903302 -0.007359240629219634 0.001632046106312964
0.11413234138273307 -0.018369466911203936 0.00040914156072115193
0.11009732249562121 -0.04527095317691279 -0.0017441958314100147
0.15644232105430986 0.04919480697653592 0.005993360749212496
0.1504559349170819 0.021932351746770336 0.005241557722171709
0.1488632928084117 0.009270130568218647 0.0044726646304605305
0.14886843332575433 0.0037922158394955467 0.003809208465927344
0.1493466168715329 0.0013145574794570772 0.0033630580378704797
0.14999999999999986 -7.387921066349964e-18 0.003213218142040894
0.15065338312846688 -0.0013145574794570538 0.0033630580378705153
0.15113156667424543 -0.0037922158394954903 0.0038092084659274426
0.15113670719158803 -0.009270130568218649 0.00447266463046063
0.14954406508291787 -0.02193235174677031 0.005241557722171806
0.1435576789456899 -0.049194806976535936 0.005993360749212628
0.18990267750437884 0.04527095317691274 -0.0017441958314101784
0.18586765861726695 0.018369466911203947 0.0004091415607210283
0.18586731582096697 0.00735924062921963 0.0016320461063128193
0.18664239889781437 0.002844978234520026 0.0023443472388323715
0.18744668447842458 0.0008103343140515599 0.002772550723516621
0.18823395256976058 -0.000326104634737544 0.0032666294975590405
0.18893863528818405 -0.001582200116299723 0.0040865495498668275
0.18931591207200552 -0.004108198384747467 0.0054598705604820144
0.18879575399537282 -0.009739794487038963 0.007558388690925962
0.18585791241445987 -0.02255440940984127 0.01065072017726262
0.17845396905791672 -0.048074784365044546 0.014590090027516735
0.22104768451644538 0.03668412547002748 -0.009188557799415355
0.21967548492677685 0.012838324427132612 -0.0036068327545261637
0.2211348253502889 0.004624906423630945 -0.0004623018686261191
0.22237866459792613 0.00159742273752733 0.0011654364253772757
0.22326562094070856 0.0002456554420550276 0.0021078624963858537
0.22404746537642756 -0.0005369565779057045 0.003063840883385917
0.22475214110132502 -0.0015226747828546595 0.004364458685362021
0.22507535036407014 -0.0036306706234548337 0.0063185113995683564
0.22418691139817024 -0.008332572238842584 0.00942576855526944
0.22033729548191083 -0.019000519795472237 0.014598284993397295
0.2119233763216151 -0.04047246625486642 0.021213062423845398
0.24966564081363382 0.023695474177280372 -0.015197161736822716
0.25109491930843525 0.006470364291718416 -0.00565704891386487
0.25327428347850617 0.002024538242389621 -0.0011193545369705018
0.2543017396566544 0.0005535195529037304 0.0003709509739547065
0.2548196532823251 -0.00010115648678935086 0.0014237792621975879
0.25531447022143455 -0.0005010246810089472 0.0025182228685307296
0.2558433674840764 -0.0010915230519686577 0.003914260728715801
0.2560470288698354 -0.0023893663152258784 0.005905840491432673
0.2550131790347723 -0.005239487693965797 0.008981992202712
0.25111754181036566 -0.011536577649802895 0.0150309397345024
0.24264653678849882 -0.02638157380011057 0.023424382635733917
0.2743553705711762 0.009044910966723527 -0.015131501791316391
0.2771153319864686 0.0015240761513263894 -0.003504990565743556
0.2786305213410523 0.00046469710602976995 -0.0008135032112797638
0.27901018492506413 6.915277519061179e-05 8.755084513717946e-05
0.2791215373041585 -8.024390235347265e-05 0.0008334172553474677
0.2793219481115801 -0.0001895988961580448 0.0016568424073377132
0.27961249156800916 -0.0003736984252476456 0.002670083227739303
0.27970651754711046 -0.0007609651248340266 0.004043851147344709
0.27896196792078487 -0.0016512679045380526 0.006221302184781284
0.2764586902176716 -0.0033228211781467726 0.00988585989015155
0.27036411797799753 -0.009211294484437303 0.018607925590306128
0.3 0.0 0.0
0.3 0.0 0.0
0.3 0.0 0.0
0.3 0.0 0.0
0.3 0.0 0.0
0.3 0.0 0.0
0.3 0.0 0.0
0.3 0.0 0.0
0.3 0.0 0.0
0.3 0.0 0.0
0.3 0.0 0.0
0.0 0.0 0.0
0.0 0.0 0.0
0.0 0.0 0.0
0.0 0.0 0.0
0.0 0.0 0.0
0.0 0.0 0.0
0.0 0.0 0.0
0.0 0.0 0.0
0.0 0.0 0.0
0.0 0.0 0.0
0.0 0.0 0.0
0.03355475323255806 0.009578277379017407 0.01145136870884858
0.025815917619078144 0.0034962544000848865 0.00689540279616886
0.02281173314994404 0.0017935526421719952 0.004517542286242544
0.02167286411875344 0.0007906045316454833 0.0028847770335165054
0.02146777477616229 0.00035075306739719994 0.0018513620847498825
0.021605595000212204 0.00014620287012197624 0.001142493223197065
0.021813550902730443 2.3589682960496805e-05 0.0005975427841072704
0.022109022244574027 -0.00015003094114860187 8.903922522306032e-05
0.022825127533048776 -0.0006922826759850322 -0.000738164218119458
0.024865666569729557 -0.0021935852807757708 -0.0027249461279936
0.030010964150435318 -0.009824561700308682 -0.008528461441056564
0.061160594903667674 0.026162586573913307 0.015268346905188489
0.0519681312612645 0.01182798252703477 0.01050579032845006
0.047608994287656234 0.0053708044633569325 0.006579302504441719
0.04612192148554758 0.0023599451553294646 0.004265728468206308
0.04594531411507325 0.0009684252870484127 0.0027834498949974125
0.04627852812513451 0.0003252437656552995 0.0017886103249898633
0.04679764802650486 -0.00012544053880614135 0.0010283935968958989
0.04755521149205204 -0.0008588427528564812 0.00023693087268326018
0.048894457605036294 -0.0025905334862590607 -0.0010610642973573037
0.051277993283363126 -0.008159768676099253 -0.004243550374568199
0.05454493807513646 -0.024332786885261234 -0.00920016379999555
0.09139724858507771 0.039617844527718986 0.014296640405430681
0.08267763906341113 0.019403851303946937 0.010375121643092707
0.07832055767075263 0.008728418659754702 0.0069244037722385335
0.076860897105087 0.003753989834249841 0.004620523378819774
0.07678336341549837 0.0014682304307741703 0.003178681642886575
0.07727117021972613 0.000342155842008695 0.002234226052530891
0.07801855096500156 -0.0005820159673478835 0.0015358817346552045
0.07903252439382367 -0.002116194123055241 0.0007816801589762186
0.08046401966514592 -0.005558920706283003 -0.0005257693852002257
0.08185725880000551 -0.014991720257638001 -0.0027329930914822666
0.08198078241859658 -0.03688245866244867 -0.005797124592622938
0.12381996450465217 0.04734239071938727 0.009996521285632144
0.11641474977911694 0.023544167719379984 0.0076919334256090165
0.11294599772264231 0.010559964514833192 0.005542384555482589
0.11193517856193073 0.004493391636334326 0.004021053008626745
0.11200417807802526 0.0016795919999946075 0.0030359589668659515
0.11251859214434333 0.00019965248456141633 0.00243990572915427
0.11321183187181477 -0.0011566286618188116 0.0020631129894423637
0.11398233144096417 -0.003482313331471488 0.001686598605595935
0.1146942687478508 -0.008518396125227734 0.0011068574396131724
0.11442768173109687 -0.020576142477059696 0.0002694777750454179
0.11149963386907327 -0.04531297592747582 -0.0010535143920101459
0.156968255368981 0.04896557932532451 0.004071036970893429
0.15150184106682366 0.023700880932252377 0.0037998740115301856
0.1494639772326552 0.010390793099657292 0.003268897920466258
0.14918170558587462 0.004376491376549117 0.0028287056480054643
0.14949003381802545 0.0015671834056549608 0.0025465625836221034
0.1499999999999999 1.4870352912224665e-17 0.0024478301394015487
0.15050996618197438 -0.0015671834056549675 0.0025465625836221355
0.15081829441412523 -0.004376491376549104 0.002828705648005572
0.15053602276734468 -0.010390793099657274 0.0032688979204663696
0.1484981589331762 -0.023700880932252383 0.0037998740115302975
0.14303174463101886 -0.04896557932532457 0.0040710369708935375
0.18850036613092674 0.04531297592747575 -0.0010535143920102645
0.1855723182689031 0.020576142477059682 0.0002694777750453175
0.18530573125214914 0.008518396125227768 0.00110685743961309
0.18601766855903568 0.003482313331471543 0.0016865986055958236
0.18678816812818505 0.0011566286618188136 0.0020631129894423178
0.18748140785565642 -0.00019965248456138633 0.00243990572915427
0.1879958219219745 -0.0016795919999945971 0.0030359589668660326
0.18806482143806905 -0.004493391636334292 0.004021053008626834
0.18705400227735747 -0.010559964514833153 0.0055423845554826556
0.18358525022088285 -0.02354416771937997 0.007691933425609092
0.1761800354953476 -0.04734239071938729 0.009996521285632231
0.21801921758140339 0.03688245866244862 -0.005797124592623083
0.2181427411999945 0.014991720257637986 -0.0027329930914823525
0.2195359803348541 0.005558920706283005 -0.0005257693852002898
0.22096747560617636 0.0021161941230552917 0.0007816801589761728
0.2219814490349984 0.0005820159673479238 0.0015358817346551685
0.2227288297802738 -0.00034215584200867775 0.0022342260525308744
0.22321663658450158 -0.0014682304307741788 0.0031786816428866034
0.22313910289491293 -0.0037539898342498082 0.004620523378819816
0.2216794423292473 -0.008728418659754666 0.006924403772238606
0.21732236093658885 -0.019403851303946923 0.010375121643092776
0.20860275141492227 -0.039617844527719014 0.01429664040543075
0.2454550619248636 0.02433278688526115 -0.009200163799995624
0.2487220067166369 0.008159768676099233 -0.004243550374568285
0.25110554239496374 0.002590533486259063 -0.0010610642973573731
0.252444788507948 0.0008588427528565154 0.00023693087268323698
0.25320235197349517 0.0001254405388061757 0.0010283935968958702
0.2537214718748655 -0.00032524376565528566 0.00178861032498984
0.2540546858849268 -0.000968425287048407 0.0027834498949973847
0.2538780785144525 -0.002359945155329446 0.004265728468206311
0.25239100571234385 -0.005370804463356926 0.006579302504441735
0.24803186873873556 -0.011827982527034788 0.01050579032845008
0.23883940509633236 -0.026162586573913363 0.015268346905188582
0.26998903584956463 0.009824561700308624 -0.008528461441056581
0.27513433343027044 0.0021935852807757664 -0.0027249461279936567
0.27717487246695127 0.0006922826759850351 -0.000738164218119526
0.27789097775542604 0.0001500309411486198 8.90392252230221e-05
0.27818644909726964 -2.3589682960491316e-05 0.0005975427841071945
0.27839440499978785 -0.0001462028701219573 0.0011424932231970369
0.27853222522383775 -0.0003507530673972 0.0018513620847498797
0.2783271358812466 -0.000790604531645473 0.002884777033516517
0.27718826685005593 -0.0017935526421719915 0.004517542286242583
0.27418408238092185 -0.0034962544000848856 0.006895402796168869
0.2664452467674419 -0.00957827737901738 0.011451368708848575
0.3 0.0 0.0
0.3 0.0 0.0
0.3 0.0 0.0
0.3 0.0 0.0
0.3 0.0 0.0
0.3 0.0 0.0
0.3 0.0 0.0
0.3 0.0 0.0
0.3 0.0 0.0
0.3 0.0 0.0
0.3 0.0 0.0
0.0 0.0 0.0
0.0 0.0 0.0
0.0 0.0 0.0
0.0 0.0 0.0
0.0 0.0 0.0
0.0 0.0 0.0
0.0 0.0 0.0
0.0 0.0 0.0
0.0 0.0 0.0
0.0 0.0 0.0
0.0 0.0 0.0
0.03545821958255917 0.00952326623938643 0.006497335163417221
0.026746601171756708 0.003396687048768214 0.004338564407281385
0.0235435535732198 0.001809310818629814 0.0029813577852050048
0.022304263833291173 0.0008105966945510818 0.001931957110903688