# vtk DataFile Version 3.0
Some data
ASCII
DATASET UNSTRUCTURED_GRID
POINTS 1331 float
0.0 0.0 0.0
0.1 0.0 0.0
0.2 0.0 0.0
0.30000000000000004 0.0 0.0
0.4 0.0 0.0
0.5 0.0 0.0
0.6000000000000001 0.0 0.0
0.7000000000000001 0.0 0.0
0.8 0.0 0.0
0.9 0.0 0.0
1.0 0.0 0.0
0.0 0.1 0.0
0.1 0.1 0.0
0.2 0.1 0.0
0.30000000000000004 0.1 0.0
0.4 0.1 0.0
0.5 0.1 0.0
0.6000000000000001 0.1 0.0
0.7000000000000001 0.1 0.0
0.8 0.1 0.0
0.9 0.1 0.0
1.0 0.1 0.0
0.0 0.2 0.0
0.1 0.2 0.0
0.2 0.2 0.0
0.30000000000000004 0.2 0.0
0.4 0.2 0.0
0.5 0.2 0.0
0.6000000000000001 0.2 0.0
0.7000000000000001 0.2 0.0
0.8 0.2 0.0
0.9 0.2 0.0
1.0 0.2 0.0
0.0 0.30000000000000004 0.0
0.1 0.30000000000000004 0.0
0.2 0.30000000000000004 0.0
0.30000000000000004 0.30000000000000004 0.0
0.4 0.30000000000000004 0.0
0.5 0.30000000000000004 0.0
0.6000000000000001 0.30000000000000004 0.0
0.7000000000000001 0.30000000000000004 0.0
0.8 0.30000000000000004 0.0
0.9 0.30000000000000004 0.0
1.0 0.30000000000000004 0.0
0.0 0.4 0.0
0.1 0.4 0.0
0.2 0.4 0.0
0.30000000000000004 0.4 0.0
0.4 0.4 0.0
0.5 0.4 0.0
0.6000000000000001 0.4 0.0
0.7000000000000001 0.4 0.0
0.8 0.4 0.0
0.9 0.4 0.0
1.0 0.4 0.0
0.0 0.5 0.0
0.1 0.5 0.0
0.2 0.5 0.0
0.30000000000000004 0.5 0.0
0.4 0.5 0.0
0.5 0.5 0.0
0.6000000000000001 0.5 0.0
0.7000000000000001 0.5 0.0
0.8 0.5 0.0
0.9 0.5 0.0
1.0 0.5 0.0
0.0 0.6000000000000001 0.0
0.1 0.6000000000000001 0.0
0.2 0.6000000000000001 0.0
0.30000000000000004 0.6000000000000001 0.0
0.4 0.6000000000000001 0.0
0.5 0.6000000000000001 0.0
0.6000000000000001 0.6000000000000001 0.0
0.7000000000000001 0.6000000000000001 0.0
0.8 0.6000000000000001 0.0
0.9 0.6000000000000001 0.0
1.0 0.6000000000000001 0.0
0.0 0.7000000000000001 0.0
0.1 0.7000000000000001 0.0
0.2 0.7000000000000001 0.0
0.30000000000000004 0.7000000000000001 0.0
0.4 0.7000000000000001 0.0
0.5 0.7000000000000001 0.0
0.6000000000000001 0.7000000000000001 0.0
0.7000000000000001 0.7000000000000001 0.0
0.8 0.7000000000000001 0.0
0.9 0.7000000000000001 0.0
1.0 0.7000000000000001 0.0
0.0 0.8 0.0
0.1 0.8 0.0
0.2 0.8 0.0
0.30000000000000004 0.8 0.0
0.4 0.8 0.0
0.5 0.8 0.0
0.6000000000000001 0.8 0.0
0.7000000000000001 0.8 0.0
0.8 0.8 0.0
0.9 0.8 0.0
1.0 0.8 0.0
0.0 0.9 0.0
0.1 0.9 0.0
0.2 0.9 0.0
0.30000000000000004 0.9 0.0
0.4 0.9 0.0
0.5 0.9 0.0
0.6000000000000001 0.9 0.0
0.7000000000000001 0.9 0.0
0.8 0.9 0.0
0.9 0.9 0.0
1.0 0.9 0.0
0.0 1.0 0.0
0.1 1.0 0.0
0.2 1.0 0.0
0.30000000000000004 1.0 0.0
0.4 1.0 0.0
0.5 1.0 0.0
0.6000000000000001 1.0 0.0
0.7000000000000001 1.0 0.0
0.8 1.0 0.0
0.9 1.0 0.0
1.0 1.0 0.0
0.0 0.0 0.1
0.1 0.0 0.1
0.2 0.0 0.1
0.30000000000000004 0.0 0.1
0.4 0.0 0.1
0.5 0.0 0.1
0.6000000000000001 0.0 0.1
0.7000000000000001 0.0 0.1
0.8 0.0 0.1
0.9 0.0 0.1
1.0 0.0 0.1
0.0 0.1 0.1
0.1 0.1 0.1
0.2 0.1 0.1
0.30000000000000004 0.1 0.1
0.4 0.1 0.1
0.5 0.1 0.1
0.6000000000000001 0.1 0.1
0.7000000000000001 0.1 0.1
0.8 0.1 0.1
0.9 0.1 0.1
1.0 0.1 0.1
0.0 0.2 0.1
0.1 0.2 0.1
0.2 0.2 0.1
0.30000000000000004 0.2 0.1
0.4 0.2 0.1
0.5 0.2 0.1
0.6000000000000001 0.2 0.1
0.7000000000000001 0.2 0.1
0.8 0.2 0.1
0.9 0.2 0.1
1.0 0.2 0.1
0.0 0.30000000000000004 0.1
0.1 0.30000000000000004 0.1
0.2 0.30000000000000004 0.1
0.30000000000000004 0.30000000000000004 0.1
0.4 0.30000000000000004 0.1
0.5 0.30000000000000004 0.1
0.6000000000000001 0.30000000000000004 0.1
0.7000000000000001 0.30000000000000004 0.1
0.8 0.30000000000000004 0.1
0.9 0.30000000000000004 0.1
1.0 0.30000000000000004 0.1
0.0 0.4 0.1
0.1 0.4 0.1
0.2 0.4 0.1
0.30000000000000004 0.4 0.1
0.4 0.4 0.1
0.5 0.4 0.1
0.6000000000000001 0.4 0.1
0.7000000000000001 0.4 0.1
0.8 0.4 0.1
0.9 0.4 0.1
1.0 0.4 0.1
0.0 0.5 0.1
0.1 0.5 0.1
0.2 0.5 0.1
0.30000000000000004 0.5 0.1
0.4 0.5 0.1
0.5 0.5 0.1
0.6000000000000001 0.5 0.1
0.7000000000000001 0.5 0.1
0.8 0.5 0.1
0.9 0.5 0.1
1.0 0.5 0.1
0.0 0.6000000000000001 0.1
0.1 0.6000000000000001 0.1
0.2 0.6000000000000001 0.1
0.30000000000000004 0.6000000000000001 0.1
0.4 0.6000000000000001 0.1
0.5 0.6000000000000001 0.1
0.6000000000000001 0.6000000000000001 0.1
0.7000000000000001 0.6000000000000001 0.1
0.8 0.6000000000000001 0.1
0.9 0.6000000000000001 0.1
1.0 0.6000000000000001 0.1
0.0 0.7000000000000001 0.1
0.1 0.7000000000000001 0.1
0.2 0.7000000000000001 0.1
0.30000000000000004 0.7000000000000001 0.1
0.4 0.7000000000000001 0.1
0.5 0.7000000000000001 0.1
0.6000000000000001 0.7000000000000001 0.1
0.7000000000000001 0.7000000000000001 0.1
0.8 0.7000000000000001 0.1
0.9 0.7000000000000001 0.1
1.0 0.7000000000000001 0.1
0.0 0.8 0.1
0.1 0.8 0.1
0.2 0.8 0.1
0.30000000000000004 0.8 0.1
0.4 0.8 0.1
0.5 0.8 0.1
0.6000000000000001 0.8 0.1
0.7000000000000001 0.8 0.1
0.8 0.8 0.1
0.9 0.8 0.1
1.0 0.8 0.1
0.0 0.9 0.1
0.1 0.9 0.1
0.2 0.9 0.1
0.30000000000000004 0.9 0.1
0.4 0.9 0.1
0.5 0.9 0.1
0.6000000000000001 0.9 0.1
0.7000000000000001 0.9 0.1
0.8 0.9 0.1
0.9 0.9 0.1
1.0 0.9 0.1
0.0 1.0 0.1
0.1 1.0 0.1
0.2 1.0 0.1
0.30000000000000004 1.0 0.1
0.4 1.0 0.1
0.5 1.0 0.1
0.6000000000000001 1.0 0.1
0.7000000000000001 1.0 0.1
0.8 1.0 0.1
0.9 1.0 0.1
1.0 1.0 0.1
0.0 0.0 0.2
0.1 0.0 0.2
0.2 0.0 0.2
0.30000000000000004 0.0 0.2
0.4 0.0 0.2
0.5 0.0 0.2
0.6000000000000001 0.0 0.2
0.7000000000000001 0.0 0.2
0.8 0.0 0.2
0.9 0.0 0.2
1.0 0.0 0.2
0.0 0.1 0.2
0.1 0.1 0.2
0.2 0.1 0.2
0.30000000000000004 0.1 0.2
0.4 0.1 0.2
0.5 0.1 0.2
0.6000000000000001 0.1 0.2
0.7000000000000001 0.1 0.2
0.8 0.1 0.2
0.9 0.1 0.2
1.0 0.1 0.2
0.0 0.2 0.2
0.1 0.2 0.2
0.2 0.2 0.2
0.30000000000000004 0.2 0.2
0.4 0.2 0.2
0.5 0.2 0.2
0.6000000000000001 0.2 0.2
0.7000000000000001 0.2 0.2
0.8 0.2 0.2
0.9 0.2 0.2
1.0 0.2 0.2
0.0 0.30000000000000004 0.2
0.1 0.30000000000000004 0.2
0.2 0.30000000000000004 0.2
0.30000000000000004 0.30000000000000004 0.2
0.4 0.30000000000000004 0.2
0.5 0.30000000000000004 0.2
0.6000000000000001 0.30000000000000004 0.2
0.7000000000000001 0.30000000000000004 0.2
0.8 0.30000000000000004 0.2
0.9 0.30000000000000004 0.2
1.0 0.30000000000000004 0.2
0.0 0.4 0.2
0.1 0.4 0.2
0.2 0.4 0.2
0.30000000000000004 0.4 0.2
0.4 0.4 0.2
0.5 0.4 0.2
0.6000000000000001 0.4 0.2
0.7000000000000001 0.4 0.2
0.8 0.4 0.2
0.9 0.4 0.2
1.0 0.4 0.2
0.0 0.5 0.2
0.1 0.5 0.2
0.2 0.5 0.2
0.30000000000000004 0.5 0.2
0.4 0.5 0.2
0.5 0.5 0.2
0.6000000000000001 0.5 0.2
0.7000000000000001 0.5 0.2
0.8 0.5 0.2
0.9 0.5 0.2
1.0 0.5 0.2
0.0 0.6000000000000001 0.2
0.1 0.6000000000000001 0.2
0.2 0.6000000000000001 0.2
0.30000000000000004 0.6000000000000001 0.2
0.4 0.6000000000000001 0.2
0.5 0.6000000000000001 0.2
0.6000000000000001 0.6000000000000001 0.2
0.7000000000000001 0.6000000000000001 0.2
0.8 0.6000000000000001 0.2
0.9 0.6000000000000001 0.2
1.0 0.6000000000000001 0.2
0.0 0.7000000000000001 0.2
0.1 0.7000000000000001 0.2
0.2 0.7000000000000001 0.2
0.30000000000000004 0.7000000000000001 0.2
0.4 0.7000000000000001 0.2
0.5 0.7000000000000001 0.2
0.6000000000000001 0.7000000000000001 0.2
0.7000000000000001 0.7000000000000001 0.2
0.8 0.7000000000000001 0.2
0.9 0.7000000000000001 0.2
1.0 0.7000000000000001 0.2
0.0 0.8 0.2
0.1 0.8 0.2
0.2 0.8 0.2
0.30000000000000004 0.8 0.2
0.4 0.8 0.2
0.5 0.8 0.2
0.6000000000000001 0.8 0.2
0.7000000000000001 0.8 0.2
0.8 0.8 0.2
0.9 0.8 0.2
1.0 0.8 0.2
0.0 0.9 0.2
0.1 0.9 0.2
0.2 0.9 0.2
0.30000000000000004 0.9 0.2
0.4 0.9 0.2
0.5 0.9 0.2
0.6000000000000001 0.9 0.2
0.7000000000000001 0.9 0.2
0.8 0.9 0.2
0.9 0.9 0.2
1.0 0.9 0.2
0.0 1.0 0.2
0.1 1.0 0.2
0.2 1.0 0.2
0.30000000000000004 1.0 0.2
0.4 1.0 0.2
0.5 1.0 0.2
0.6000000000000001 1.0 0.2
0.7000000000000001 1.0 0.2
0.8 1.0 0.2
0.9 1.0 0.2
1.0 1.0 0.2
0.0 0.0 0.30000000000000004
0.1 0.0 0.30000000000000004
0.2 0.0 0.30000000000000004
0.30000000000000004 0.0 0.30000000000000004
0.4 0.0 0.30000000000000004
0.5 0.0 0.30000000000000004
0.6000000000000001 0.0 0.30000000000000004
0.7000000000000001 0.0 0.30000000000000004
0.8 0.0 0.30000000000000004
0.9 0.0 0.30000000000000004
1.0 0.0 0.30000000000000004
0.0 0.1 0.30000000000000004
0.1 0.1 0.30000000000000004
0.2 0.1 0.30000000000000004
0.30000000000000004 0.1 0.30000000000000004
0.4 0.1 0.30000000000000004
0.5 0.1 0.30000000000000004
0.6000000000000001 0.1 0.30000000000000004
0.7000000000000001 0.1 0.30000000000000004
0.8 0.1 0.30000000000000004
0.9 0.1 0.30000000000000004
1.0 0.1 0.30000000000000004
0.0 0.2 0.30000000000000004
0.1 0.2 0.30000000000000004
0.2 0.2 0.30000000000000004
0.30000000000000004 0.2 0.30000000000000004
0.4 0.2 0.30000000000000004
0.5 0.2 0.30000000000000004
0.6000000000000001 0.2 0.30000000000000004
0.7000000000000001 0.2 0.30000000000000004
0.8 0.2 0.30000000000000004
0.9 0.2 0.30000000000000004
1.0 0.2 0.30000000000000004
0.0 0.30000000000000004 0.30000000000000004
0.1 0.30000000000000004 0.30000000000000004
0.2 0.30000000000000004 0.30000000000000004
0.30000000000000004 0.30000000000000004 0.30000000000000004
0.4 0.30000000000000004 0.30000000000000004
0.5 0.30000000000000004 0.30000000000000004
0.6000000000000001 0.30000000000000004 0.30000000000000004
0.7000000000000001 0.30000000000000004 0.30000000000000004
0.8 0.30000000000000004 0.30000000000000004
0.9 0.30000000000000004 0.30000000000000004
1.0 0.30000000000000004 0.30000000000000004
0.0 0.4 0.30000000000000004
0.1 0.4 0.30000000000000004
0.2 0.4 0.30000000000000004
0.30000000000000004 0.4 0.30000000000000004
0.4 0.4 0.30000000000000004
0.5 0.4 0.30000000000000004
0.6000000000000001 0.4 0.30000000000000004
0.7000000000000001 0.4 0.30000000000000004
0.8 0.4 0.30000000000000004
0.9 0.4 0.30000000000000004
1.0 0.4 0.30000000000000004
0.0 0.5 0.30000000000000004
0.1 0.5 0.30000000000000004
0.2 0.5 0.30000000000000004
0.30000000000000004 0.5 0.30000000000000004
0.4 0.5 0.30000000000000004
0.5 0.5 0.30000000000000004
0.6000000000000001 0.5 0.30000000000000004
0.7000000000000001 0.5 0.30000000000000004
0.8 0.5 0.30000000000000004
0.9 0.5 0.30000000000000004
1.0 0.5 0.30000000000000004
0.0 0.6000000000000001 0.30000000000000004
0.1 0.6000000000000001 0.30000000000000004
0.2 0.6000000000000001 0.30000000000000004
0.30000000000000004 0.6000000000000001 0.30000000000000004
[...]
POINT_DATA 1331
VECTORS Disp float
0.0 0.0 0.0
0.0 0.0 0.0
0.0 0.0 0.0
0.0 0.0 0.0
0.0 0.0 0.0
0.0 0.0 0.0
0.0 0.0 0.0
0.0 0.0 0.0
0.0 0.0 0.0
0.0 0.0 0.0
0.0 0.0 0.0
0.006720999294292342 0.0054812446064611085 0.008397917346718036
0.004142677274539954 0.002426450906490872 0.00444394258776213
0.0035530555107687197 0.0009922915258448527 0.0025554341847222346
0.003723237934221171 0.0004435868791267927 0.0014620410568132814
0.00394254551312965 0.000247101089906835 0.0007862439826789577
0.004058411595924677 0.00010953273134785135 0.00021761786326425872
0.00405646702908326 -1.1308201518063515e-05 -0.00032110869248183925
0.003930202293035916 -0.0001486077300426667 -0.000904924421138616
0.003695284474722544 -0.00032948976366560143 -0.0016292955459826961
0.003921669991872328 -0.0016082181066629643 -0.003204260644375346
0.005865240969429272 -0.0050632084009925304 -0.007364060533099383
0.014342938730810358 0.012004141449173073 0.009705453240103174
0.012491835810909253 0.0054015084319196174 0.005965817872094858
0.011853357861164013 0.0019863175384241412 0.00352280573018968
0.011932604420955072 0.0008590865239778631 0.00217711430117551
0.012140022052529738 0.0004278705294655799 0.0011520718887356096
0.012282978884157825 0.0001558080466465299 0.00030487940162200343
0.012318295097288375 -9.839873800210431e-05 -0.0004888438723066888
0.012272671199669663 -0.0004353265490728768 -0.0013415431562442564
0.012293954970063931 -0.0010489576510394867 -0.002332528484390444
0.012609179467428268 -0.003858037047462455 -0.004113917295552001
0.013505630818738238 -0.010835704800212688 -0.007575311864972442
0.025303448046424842 0.015851892966811987 0.0078073885747899
0.023945228863837827 0.007091407775714587 0.005112362510365488
0.02342679427272096 0.0027056860832182566 0.0033803933638175618
0.023406366083486327 0.0011551177959562998 0.00212961023780668
0.02355766465182689 0.0005055742391986637 0.0011638231845923146
0.023715734938672114 0.0001290150837845234 0.00037425853766294117
0.023815508348241834 -0.0002341593678316645 -0.00034602460821484937
0.02389188756117273 -0.0007995025289369532 -0.001078990899479109
0.024091074317493664 -0.002002030428873671 -0.001971720586248046
0.024389557498686987 -0.005620037826630193 -0.0029822086883661445
0.024606036287871412 -0.014726615325531583 -0.0050878813035537835
0.037892691742895473 0.017666668656140257 0.0044738318780711255
0.036902223642238316 0.007759165838857517 0.003131012177819542
0.03657259683255586 0.0031488334615242045 0.0022719718567403412
0.03653774329224163 0.0013251570410228379 0.0014858870386791384
0.036642069623683646 0.0005139717322403385 0.0008712686780289927
0.036785358993581305 5.8100403289576196e-05 0.0004006731750236278
0.036914882275987944 -0.0003915038978840447 9.72008011978469e-06
0.03703995862085119 -0.0011558318570523678 -0.0003476575061892639
0.03721532654719444 -0.0028428741991992743 -0.0007470102926008932
0.03737830639576656 -0.006952063334344203 -0.0010638875888603686
0.03712385055185974 -0.017067561292268045 -0.0017772928442905062
0.05077266603272588 0.017937879987672593 0.0010778394742360373
0.05008885320506177 0.007665786988362726 0.0009110850729812962
0.04992340629415137 0.003229249632516003 0.0007343887571447264
0.04989521171099286 0.0013390236093711854 0.0005394689876623915
0.049933465193960636 0.00048521910551863306 0.00041503416554673257
0.050000000000000155 -4.2508506379419325e-18 0.00037484146680743407
0.05006653480603976 -0.00048521910551863024 0.00041503416554678033
0.05010478828900758 -0.0013390236093711863 0.0005394689876624523
0.050076593705849055 -0.0032292496325160157 0.0007343887571448001
0.049911146794938646 -0.0076657869883627475 0.0009110850729813763
0.04922733396727454 -0.017937879987672593 0.0010778394742361472
0.06287614944814066 0.017067561292268003 -0.0017772928442906203
0.06262169360423386 0.006952063334344197 -0.0010638875888604512
0.06278467345280593 0.00284287419919928 -0.0007470102926009826
0.06296004137914912 0.0011558318570523971 -0.0003476575061893304
0.0630851177240124 0.0003915038978840671 9.720080119736063e-06
0.06321464100641905 -5.810040328957407e-05 0.00040067317502362314
0.06335793037631665 -0.000513971732240346 0.0008712686780290079
0.0634622567077587 -0.0013251570410228344 0.0014858870386792035
0.06342740316744444 -0.003148833461524222 0.0022719718567403915
0.06309777635776201 -0.007759165838857532 0.0031310121778196144
0.062107308257104865 -0.01766666865614025 0.004473831878071203
0.07539396371212898 0.014726615325531522 -0.005087881303553893
0.07561044250131338 0.005620037826630189 -0.0029822086883661866
0.07590892568250668 0.0020020304288737006 -0.001971720586248094
0.07610811243882765 0.0007995025289369985 -0.0010789908994791606
0.0761844916517585 0.00023415936783167506 -0.000346024608214886
0.0762842650613282 -0.00012901508378453976 0.00037425853766294686
0.07644233534817343 -0.0005055742391986774 0.0011638231845923432
0.076593633916514 -0.001155117795956328 0.002129610237806708
0.07657320572727938 -0.0027056860832182722 0.0033803933638176208
0.07605477113616248 -0.007091407775714587 0.005112362510365539
0.07469655195357545 -0.015851892966811953 0.0078073885747899415
0.08649436918126194 0.010835704800212615 -0.007575311864972477
0.08739082053257195 0.003858037047462461 -0.004113917295552024
0.08770604502993631 0.0010489576510394928 -0.0023325284843904357
0.08772732880033057 0.00043532654907290334 -0.0013415431562442534
0.08768170490271189 9.839873800210362e-05 -0.0004888438723066872
0.08771702111584245 -0.00015580804664654262 0.00030487940162199286
0.08785997794747055 -0.0004278705294655793 0.0011520718887356267
0.0880673955790452 -0.000859086523977888 0.0021771143011755072
0.08814664213883622 -0.001986317538424146 0.003522805730189687
0.087508164189091 -0.005401508431919594 0.005965817872094851
0.08565706126918993 -0.01200414144917301 0.00970545324010318
0.09413475903057078 0.005063208400992495 -0.007364060533099346
0.09607833000812771 0.0016082181066629784 -0.003204260644375361
0.09630471552527751 0.00032948976366560534 -0.001629295545982695
0.09606979770696414 0.0001486077300426736 -0.0009049244211386154
0.09594353297091684 1.1308201518050633e-05 -0.00032110869248184586
0.09594158840407543 -0.00010953273134783632 0.00021761786326426462
0.09605745448687043 -0.0002471010899068503 0.0007862439826789483
0.09627676206577891 -0.000443586879126792 0.0014620410568132749
0.09644694448923134 -0.000992291525844853 0.002555434184722251
0.09585732272546013 -0.002426450906490854 0.004443942587762133
0.0932790007057078 -0.005481244606461041 0.008397917346718003
0.1 0.0 0.0
0.1 0.0 0.0
0.1 0.0 0.0
0.1 0.0 0.0
0.1 0.0 0.0
0.1 0.0 0.0
0.1 0.0 0.0
0.1 0.0 0.0
0.1 0.0 0.0
0.1 0.0 0.0
0.1 0.0 0.0
0.0 0.0 0.0
0.0 0.0 0.0
0.0 0.0 0.0
0.0 0.0 0.0
0.0 0.0 0.0
0.0 0.0 0.0
0.0 0.0 0.0
0.0 0.0 0.0
0.0 0.0 0.0
0.0 0.0 0.0
0.0 0.0 0.0
0.0086926008930946 0.0046007465797028866 0.004771366913660764
0.005635954019628317 0.0015590242547343655 0.00286206230765624
0.0045807492441918 0.0005522877223816938 0.0016555361425229665
0.004408582379753407 0.00014396940165065667 0.0009316975409311065
0.004455100041670499 8.132705290311775e-05 0.00047944699388910303
0.00449799255870148 3.903539463239254e-05 0.00011640769043341352
0.004507285626884435 -1.0157746674475224e-06 -0.0002239199317938819
0.004495505199093899 -4.526209620892386e-05 -0.0005842407535900135
0.004570456940235983 -0.00016113880368958766 -0.0011034588428447153
0.005366154899189406 -0.001189108521313253 -0.002157449146662842
0.00808244958555043 -0.00463739008775447 -0.004065079850307825
0.01748079118429695 0.011570889359588691 0.006579583216677612
0.01452398840089412 0.005096261590509828 0.004442405905106989
0.013123977763355863 0.0017914848098343694 0.002705760138866903
0.012773885824574574 0.0006628210545267469 0.0016225963940773086
0.012752635156499659 0.0003070314275641137 0.0008476116408134252
0.012799215253420083 8.371508248094607e-05 0.00021502178454860615
0.01283939666364316 -0.00013451580372775827 -0.00036869326891923846
0.012931026481321632 -0.00044769471766029545 -0.0009898074209796054
0.013288757303285503 -0.0010836401181073237 -0.0017692080991886057
0.014344701430173822 -0.004168751745641208 -0.0031651397304771384
0.016459385683884574 -0.011168654754521723 -0.0051001293186414415
0.027740420329260072 0.016599405195112188 0.005664195915747511
0.025679811961345715 0.007932546048379176 0.0040205146730080965
0.024578823321572345 0.003045473837678277 0.0026412556426738433
0.024201679675728678 0.0012871884095899877 0.001658372284638587
0.024143050658010496 0.0005469954620959832 0.0008982883823990254
0.02420198493331875 8.142401381553884e-05 0.0002788416966630356
0.024292325038257567 -0.0003773299252276393 -0.00027766401702865404
0.024466120208285494 -0.0010795000449160218 -0.0008512394233164505
0.02490842780079288 -0.002454198188563395 -0.001514493266198156
0.025604044409611948 -0.006877447046226238 -0.0024361634264178263
0.026469553033509535 -0.016014710737745082 -0.003716948220388428
0.039144328027437045 0.0191060523308401 0.0033462639728851053
0.037945332813144265 0.00924671387461154 0.002492323380291166
0.03730500768515227 0.0038671451847437617 0.001761083578220672
0.03706091623221271 0.0017441183980667404 0.0011709380470692927
0.03702270701604885 0.0006982015737963669 0.0006823104770452019
0.037082676290280545 3.836370412641773e-05 0.0003064834818724365
0.03717778551981146 -0.0006175694012942561 -2.3272890133947796e-06
0.03731830153425061 -0.0016403102714514003 -0.00028919013197076883
0.03757926451289295 -0.003599664337185421 -0.0005839457833897581
0.03780651047925149 -0.008573121672874058 -0.0008924520584693964
0.03768351113928635 -0.018684881088046626 -0.001376775270458703
0.05100196289085729 0.01958615032959006 0.0007693111800939945
0.05033815339228877 0.009319149702983205 0.000710133512519654
0.05008620835746697 0.004081274707572202 0.0005722385999039149
0.05001037617283749 0.001877111369925836 0.0004368465756775732
0.04999032019150306 0.0007308805321805561 0.0003375457766209456
0.05000000000000017 -1.458905853024959e-18 0.00030483124196672713
0.0500096798084973 -0.0007308805321805421 0.0003375457766209831
0.049989623827162856 -0.0018771113699258249 0.0004368465756776349
0.04991379164253337 -0.0040812747075722015 0.0005722385999039667
0.0496618466077116 -0.009319149702983223 0.0007101335125197206
0.04899803710914305 -0.01958615032959006 0.000769311180094089
0.062316488860714045 0.01868488108804657 -0.0013767752704588023
0.06219348952074888 0.00857312167287405 -0.0008924520584694735
0.06242073548710737 0.0035996643371853923 -0.0005839457833898215
0.06268169846574971 0.0016403102714514209 -0.0002891901319708245
0.06282221448018882 0.0006175694012942681 -2.3272890134284576e-06
0.06291732370971975 -3.836370412643283e-05 0.0003064834818724317
0.06297729298395142 -0.0006982015737963545 0.0006823104770452404
0.06293908376778759 -0.00174411839806674 0.0011709380470693361
0.06269499231484804 -0.0038671451847437713 0.001761083578220727
0.062054667186856025 -0.009246713874611552 0.0024923233802912103
0.06085567197256328 -0.019106052330840055 0.0033462639728851903
0.07353044696649075 0.016014710737744995 -0.0037169482203885133
0.0743959555903884 0.0068774470462262234 -0.0024361634264178774
0.07509157219920744 0.0024541981885633857 -0.0015144932661981985
0.07553387979171479 0.0010795000449160385 -0.0008512394233164973
0.0757076749617427 0.00037732992522764524 -0.00027766401702868364
0.07579801506668155 -8.142401381552582e-05 0.00027884169666304366
0.07585694934198982 -0.0005469954620959787 0.0008982883823990427
0.07579832032427161 -0.0012871884095900091 0.0016583722846386143
0.07542117667842792 -0.0030454738376782713 0.0026412556426738793
0.07432018803865457 -0.007932546048379159 0.004020514673008143
0.07225957967074018 -0.016599405195112132 0.005664195915747558
0.08354061431611565 0.01116865475452163 -0.005100129318641477
0.0856552985698264 0.004168751745641199 -0.003165139730477164
0.08671124269671474 0.0010836401181073252 -0.0017692080991886276
0.08706897351867865 0.0004476947176603131 -0.0009898074209796185
0.08716060333635711 0.00013451580372774992 -0.00036869326891923553
0.08720078474658018 -8.371508248096007e-05 0.0002150217845486027
0.08724736484350061 -0.00030703142756412065 0.0008476116408134322
0.08722611417542567 -0.00066282105452674 0.0016225963940773296
0.08687602223664442 -0.0017914848098343492 0.002705760138866911
0.08547601159910614 -0.0050962615905098 0.0044424059051069945
0.08251920881570327 -0.01157088935958862 0.006579583216677627
0.09191755041444963 0.004637390087754404 -0.004065079850307807
0.09463384510081063 0.0011891085213132503 -0.0021574491466628473
0.09542954305976406 0.00016113880368957937 -0.001103458842844723
0.09550449480090617 4.526209620893466e-05 -0.0005842407535900144
0.09549271437311561 1.0157746674517237e-06 -0.00022391993179388223
0.09550200744129855 -3.903539463237875e-05 0.00011640769043341087
0.09554489995832954 -8.132705290312039e-05 0.00047944699388910916
0.09559141762024664 -0.00014396940165065802 0.0009316975409311033
0.09541925075580826 -0.0005522877223816737 0.0016555361425229734
0.09436404598037176 -0.0015590242547343564 0.0028620623076562254
0.09130739910690555 -0.004600746579702835 0.004771366913660749
0.1 0.0 0.0
0.1 0.0 0.0
0.1 0.0 0.0
0.1 0.0 0.0
0.1 0.0 0.0
0.1 0.0 0.0
0.1 0.0 0.0
0.1 0.0 0.0
0.1 0.0 0.0
0.1 0.0 0.0
0.1 0.0 0.0
0.0 0.0 0.0
0.0 0.0 0.0
0.0 0.0 0.0
0.0 0.0 0.0
0.0 0.0 0.0
0.0 0.0 0.0
0.0 0.0 0.0
0.0 0.0 0.0
0.0 0.0 0.0
0.0 0.0 0.0
0.0 0.0 0.0
0.009785101553671821 0.004869960278425933 0.0027010539951920075
0.005973270440540123 0.0016082734909701854 0.0018350785888701076
0.004801758116873034 0.0006089807700869891 0.0011694673150625052
0.004575468547098477 0.0001522523429591273 0.0006661599533579524
0.004588150571760418 7.589508364589946e-05 0.00033291621435674866
0.004607991555512513 2.9045384230063907e-05 7.619490017511692e-05
0.00461884669911802 -1.8647493972586074e-05 -0.00015810277640792441
0.004639311028944389 -6.928505055261644e-05 -0.00041403718784042954
0.004762563978456664 -0.0002556034135040981 -0.0008063804797182306
0.005666668752182081 -0.001327935917920957 -0.0013841805940954608
0.009138881274099744 -0.004950556210244887 -0.002223724994985441
0.018692495316795246 0.011472858631548268 0.004079430976306621
0.015419542682392876 0.005106413842104383 0.0029672747784668177
0.013772836279330049 0.0018181196426487359 0.0019089081527551535
0.013246793796318556 0.0006216757818204898 0.0011335397185446685
0.013104577141038812 0.0002677332519146075 0.0005827852155036047
0.01309457756451875 5.6043911391506066e-05 0.00014831207989359285
0.01315234430151195 -0.00015979419803151317 -0.00024599034356397086
0.01334430142894258 -0.00046771782217182203 -0.0006713972216888121
0.013860829707031919 -0.001201122209601692 -0.001250222033213407
0.015131684501081785 -0.0044493599836985835 -0.00211934514093225
0.017589463535544657 -0.011239530534461754 -0.003089271629116506
0.02890151479191953 0.016393042640548618 0.0037394461343579323
0.026571331696157528 0.008138593570463495 0.002810245600997876
0.025237201765606038 0.003207831319903251 0.0018887962964043246
0.024669747264718243 0.001292209345926778 0.0011723995042537076
0.024488905338450023 0.0005388831996519585 0.0006325977874156401
0.024487338745681077 5.7381909576763665e-05 0.00019918931775028242
0.024585218101301473 -0.00042463417499171005 -0.00018506041537954076
0.02483886526715788 -0.0011483281796861714 -0.0005811191918106652
0.02541566899763975 -0.0026503973073646516 -0.001064530576821438
0.026258400169494503 -0.007375536635415837 -0.0017090953419724338
0.027447757818435427 -0.01604213986306583 -0.0024171940018238255
0.039857666069516295 0.019095344321701988 0.0022858910495166147
0.038545528134355064 0.009775643224005759 0.0017781937448179868
0.03775877285590037 0.004120107676311605 0.0012596973513219639
0.03739494702092137 0.0018316568242177779 0.0008330689157744226
0.037265175546286416 0.0007353189578885838 0.0004884656392823664
0.03727495481189526 2.232871498835918e-05 0.00022308349016957006
0.037358000146106976 -0.0006892391730471873 8.729807674846712e-06
0.03752650675510431 -0.0017760093136057666 -0.00018846940560786598
0.037841111561329105 -0.003851439487369375 -0.0003976458678406563
0.03810022010471355 -0.009287980890048418 -0.0006225587456247349
0.038154313257506026 -0.018843049804337826 -0.0008830741185057948
0.051110927699574496 0.019751690127220306 0.0005089039773876332
0.05048601325234479 0.010048706797449498 0.0004896500495188258
0.050177176889646416 0.004355420227170141 0.00041583418356489155
0.05007300024671253 0.0020226417387027365 0.000321726960602822
0.050020626401129364 0.00080086325776918 0.0002519015692751493
0.05000000000000014 -1.1056972623883956e-17 0.0002275748291785179
0.04997937359887094 -0.0008008632577691522 0.0002519015692751784
0.049926999753287814 -0.002022641738702751 0.00032172696060287246
0.049822823110353937 -0.004355420227170159 0.0004158341835649428
0.049513986747655545 -0.0100487067974495 0.0004896500495188757
0.048889072300425856 -0.019751690127220323 0.000508903977387696
0.061845686742494334 0.018843049804337774 -0.0008830741185058663
0.06189977989528685 0.009287980890048396 -0.0006225587456247841
0.06215888843867125 0.003851439487369361 -0.0003976458678406963
0.062473493244896 0.001776009313605781 -0.0001884694056079095
0.06264199985389331 0.000689239173047203 8.729807674826668e-06
0.062725045188105 -2.2328714988375743e-05 0.00022308349016957768
0.06273482445371385 -0.0007353189578885783 0.0004884656392823922
0.06260505297907892 -0.0018316568242178022 0.0008330689157744562
0.0622412271440999 -0.0041201076763115975 0.001259697351321989
0.06145447186564524 -0.009775643224005762 0.0017781937448180236
0.060142333930483974 -0.019095344321701936 0.0022858910495166538
0.07255224218156486 0.01604213986306573 -0.0024171940018238858
0.07374159983050582 0.007375536635415813 -0.0017090953419724771
0.07458433100236059 0.002650397307364636 -0.0010645305768214738
0.07516113473284247 0.0011483281796861972 -0.0005811191918106929
0.07541478189869884 0.0004246341749917371 -0.00018506041537955074
0.07551266125431921 -5.738190957676273e-05 0.00019918931775026816
0.07551109466155026 -0.0005388831996519677 0.0006325977874156606
0.07533025273528207 -0.0012922093459267795 0.001172399504253728
0.0747627982343943 -0.0032078313199032354 0.001888796296404352
0.07342866830384276 -0.008138593570463485 0.0028102456009979114
0.07109848520808076 -0.016393042640548573 0.003739446134357959
0.08241053646445556 0.01123953053446166 -0.0030892716291165264
0.08486831549891842 0.004449359983698563 -0.00211934514093227
0.08613917029296825 0.0012011222096016704 -0.0012502220332134286
0.08665569857105761 0.00046771782217183515 -0.000671397221688824
0.08684765569848828 0.00015979419803153973 -0.0002459903435639704
0.0869054224354815 -5.6043911391498476e-05 0.00014831207989361446
0.08689542285896146 -0.0002677332519146278 0.0005827852155036077
0.08675320620368168 -0.0006216757818204789 0.001133539718544672
0.08622716372067019 -0.0018181196426487179 0.0019089081527551685
0.08458045731760735 -0.005106413842104357 0.0029672747784668264
0.08130750468320505 -0.011472858631548212 0.004079430976306613
0.09086111872590033 0.004950556210244828 -0.0022237249949854316
0.09433333124781798 0.0013279359179209623 -0.0013841805940954716
0.09523743602154339 0.00025560341350409964 -0.0008063804797182556
0.09536068897105562 6.928505055260912e-05 -0.0004140371878404384
0.09538115330088202 1.8647493972584302e-05 -0.00015810277640792618
0.09539200844448756 -2.904538423006155e-05 7.619490017510993e-05
0.09541184942823963 -7.589508364590919e-05 0.0003329162143567569
0.09542453145290156 -0.00015225234295912734 0.0006661599533579641
0.095198241883127 -0.0006089807700869658 0.0011694673150625086
0.09402672955945995 -0.0016082734909701889 0.001835078588870123
0.09021489844632835 -0.004869960278425883 0.002701053995191969
0.1 0.0 0.0
0.1 0.0 0.0
0.1 0.0 0.0
0.1 0.0 0.0
0.1 0.0 0.0
0.1 0.0 0.0
0.1 0.0 0.0
0.1 0.0 0.0