# vtk DataFile Version 3.0
Some data
ASCII
DATASET UNSTRUCTURED_GRID
POINTS 1331 float
0.0 0.0 0.0
0.1 0.0 0.0
0.2 0.0 0.0
0.30000000000000004 0.0 0.0
0.4 0.0 0.0
0.5 0.0 0.0
0.6000000000000001 0.0 0.0
0.7000000000000001 0.0 0.0
0.8 0.0 0.0
0.9 0.0 0.0
1.0 0.0 0.0
0.0 0.1 0.0
0.1 0.1 0.0
0.2 0.1 0.0
0.30000000000000004 0.1 0.0
0.4 0.1 0.0
0.5 0.1 0.0
0.6000000000000001 0.1 0.0
0.7000000000000001 0.1 0.0
0.8 0.1 0.0
0.9 0.1 0.0
1.0 0.1 0.0
0.0 0.2 0.0
0.1 0.2 0.0
0.2 0.2 0.0
0.30000000000000004 0.2 0.0
0.4 0.2 0.0
0.5 0.2 0.0
0.6000000000000001 0.2 0.0
0.7000000000000001 0.2 0.0
0.8 0.2 0.0
0.9 0.2 0.0
1.0 0.2 0.0
0.0 0.30000000000000004 0.0
0.1 0.30000000000000004 0.0
0.2 0.30000000000000004 0.0
0.30000000000000004 0.30000000000000004 0.0
0.4 0.30000000000000004 0.0
0.5 0.30000000000000004 0.0
0.6000000000000001 0.30000000000000004 0.0
0.7000000000000001 0.30000000000000004 0.0
0.8 0.30000000000000004 0.0
0.9 0.30000000000000004 0.0
1.0 0.30000000000000004 0.0
0.0 0.4 0.0
0.1 0.4 0.0
0.2 0.4 0.0
0.30000000000000004 0.4 0.0
0.4 0.4 0.0
0.5 0.4 0.0
0.6000000000000001 0.4 0.0
0.7000000000000001 0.4 0.0
0.8 0.4 0.0
0.9 0.4 0.0
1.0 0.4 0.0
0.0 0.5 0.0
0.1 0.5 0.0
0.2 0.5 0.0
0.30000000000000004 0.5 0.0
0.4 0.5 0.0
0.5 0.5 0.0
0.6000000000000001 0.5 0.0
0.7000000000000001 0.5 0.0
0.8 0.5 0.0
0.9 0.5 0.0
1.0 0.5 0.0
0.0 0.6000000000000001 0.0
0.1 0.6000000000000001 0.0
0.2 0.6000000000000001 0.0
0.30000000000000004 0.6000000000000001 0.0
0.4 0.6000000000000001 0.0
0.5 0.6000000000000001 0.0
0.6000000000000001 0.6000000000000001 0.0
0.7000000000000001 0.6000000000000001 0.0
0.8 0.6000000000000001 0.0
0.9 0.6000000000000001 0.0
1.0 0.6000000000000001 0.0
0.0 0.7000000000000001 0.0
0.1 0.7000000000000001 0.0
0.2 0.7000000000000001 0.0
0.30000000000000004 0.7000000000000001 0.0
0.4 0.7000000000000001 0.0
0.5 0.7000000000000001 0.0
0.6000000000000001 0.7000000000000001 0.0
0.7000000000000001 0.7000000000000001 0.0
0.8 0.7000000000000001 0.0
0.9 0.7000000000000001 0.0
1.0 0.7000000000000001 0.0
0.0 0.8 0.0
0.1 0.8 0.0
0.2 0.8 0.0
0.30000000000000004 0.8 0.0
0.4 0.8 0.0
0.5 0.8 0.0
0.6000000000000001 0.8 0.0
0.7000000000000001 0.8 0.0
0.8 0.8 0.0
0.9 0.8 0.0
1.0 0.8 0.0
0.0 0.9 0.0
0.1 0.9 0.0
0.2 0.9 0.0
0.30000000000000004 0.9 0.0
0.4 0.9 0.0
0.5 0.9 0.0
0.6000000000000001 0.9 0.0
0.7000000000000001 0.9 0.0
0.8 0.9 0.0
0.9 0.9 0.0
1.0 0.9 0.0
0.0 1.0 0.0
0.1 1.0 0.0
0.2 1.0 0.0
0.30000000000000004 1.0 0.0
0.4 1.0 0.0
0.5 1.0 0.0
0.6000000000000001 1.0 0.0
0.7000000000000001 1.0 0.0
0.8 1.0 0.0
0.9 1.0 0.0
1.0 1.0 0.0
0.0 0.0 0.1
0.1 0.0 0.1
0.2 0.0 0.1
0.30000000000000004 0.0 0.1
0.4 0.0 0.1
0.5 0.0 0.1
0.6000000000000001 0.0 0.1
0.7000000000000001 0.0 0.1
0.8 0.0 0.1
0.9 0.0 0.1
1.0 0.0 0.1
0.0 0.1 0.1
0.1 0.1 0.1
0.2 0.1 0.1
0.30000000000000004 0.1 0.1
0.4 0.1 0.1
0.5 0.1 0.1
0.6000000000000001 0.1 0.1
0.7000000000000001 0.1 0.1
0.8 0.1 0.1
0.9 0.1 0.1
1.0 0.1 0.1
0.0 0.2 0.1
0.1 0.2 0.1
0.2 0.2 0.1
0.30000000000000004 0.2 0.1
0.4 0.2 0.1
0.5 0.2 0.1
0.6000000000000001 0.2 0.1
0.7000000000000001 0.2 0.1
0.8 0.2 0.1
0.9 0.2 0.1
1.0 0.2 0.1
0.0 0.30000000000000004 0.1
0.1 0.30000000000000004 0.1
0.2 0.30000000000000004 0.1
0.30000000000000004 0.30000000000000004 0.1
0.4 0.30000000000000004 0.1
0.5 0.30000000000000004 0.1
0.6000000000000001 0.30000000000000004 0.1
0.7000000000000001 0.30000000000000004 0.1
0.8 0.30000000000000004 0.1
0.9 0.30000000000000004 0.1
1.0 0.30000000000000004 0.1
0.0 0.4 0.1
0.1 0.4 0.1
0.2 0.4 0.1
0.30000000000000004 0.4 0.1
0.4 0.4 0.1
0.5 0.4 0.1
0.6000000000000001 0.4 0.1
0.7000000000000001 0.4 0.1
0.8 0.4 0.1
0.9 0.4 0.1
1.0 0.4 0.1
0.0 0.5 0.1
0.1 0.5 0.1
0.2 0.5 0.1
0.30000000000000004 0.5 0.1
0.4 0.5 0.1
0.5 0.5 0.1
0.6000000000000001 0.5 0.1
0.7000000000000001 0.5 0.1
0.8 0.5 0.1
0.9 0.5 0.1
1.0 0.5 0.1
0.0 0.6000000000000001 0.1
0.1 0.6000000000000001 0.1
0.2 0.6000000000000001 0.1
0.30000000000000004 0.6000000000000001 0.1
0.4 0.6000000000000001 0.1
0.5 0.6000000000000001 0.1
0.6000000000000001 0.6000000000000001 0.1
0.7000000000000001 0.6000000000000001 0.1
0.8 0.6000000000000001 0.1
0.9 0.6000000000000001 0.1
1.0 0.6000000000000001 0.1
0.0 0.7000000000000001 0.1
0.1 0.7000000000000001 0.1
0.2 0.7000000000000001 0.1
0.30000000000000004 0.7000000000000001 0.1
0.4 0.7000000000000001 0.1
0.5 0.7000000000000001 0.1
0.6000000000000001 0.7000000000000001 0.1
0.7000000000000001 0.7000000000000001 0.1
0.8 0.7000000000000001 0.1
0.9 0.7000000000000001 0.1
1.0 0.7000000000000001 0.1
0.0 0.8 0.1
0.1 0.8 0.1
0.2 0.8 0.1
0.30000000000000004 0.8 0.1
0.4 0.8 0.1
0.5 0.8 0.1
0.6000000000000001 0.8 0.1
0.7000000000000001 0.8 0.1
0.8 0.8 0.1
0.9 0.8 0.1
1.0 0.8 0.1
0.0 0.9 0.1
0.1 0.9 0.1
0.2 0.9 0.1
0.30000000000000004 0.9 0.1
0.4 0.9 0.1
0.5 0.9 0.1
0.6000000000000001 0.9 0.1
0.7000000000000001 0.9 0.1
0.8 0.9 0.1
0.9 0.9 0.1
1.0 0.9 0.1
0.0 1.0 0.1
0.1 1.0 0.1
0.2 1.0 0.1
0.30000000000000004 1.0 0.1
0.4 1.0 0.1
0.5 1.0 0.1
0.6000000000000001 1.0 0.1
0.7000000000000001 1.0 0.1
0.8 1.0 0.1
0.9 1.0 0.1
1.0 1.0 0.1
0.0 0.0 0.2
0.1 0.0 0.2
0.2 0.0 0.2
0.30000000000000004 0.0 0.2
0.4 0.0 0.2
0.5 0.0 0.2
0.6000000000000001 0.0 0.2
0.7000000000000001 0.0 0.2
0.8 0.0 0.2
0.9 0.0 0.2
1.0 0.0 0.2
0.0 0.1 0.2
0.1 0.1 0.2
0.2 0.1 0.2
0.30000000000000004 0.1 0.2
0.4 0.1 0.2
0.5 0.1 0.2
0.6000000000000001 0.1 0.2
0.7000000000000001 0.1 0.2
0.8 0.1 0.2
0.9 0.1 0.2
1.0 0.1 0.2
0.0 0.2 0.2
0.1 0.2 0.2
0.2 0.2 0.2
0.30000000000000004 0.2 0.2
0.4 0.2 0.2
0.5 0.2 0.2
0.6000000000000001 0.2 0.2
0.7000000000000001 0.2 0.2
0.8 0.2 0.2
0.9 0.2 0.2
1.0 0.2 0.2
0.0 0.30000000000000004 0.2
0.1 0.30000000000000004 0.2
0.2 0.30000000000000004 0.2
0.30000000000000004 0.30000000000000004 0.2
0.4 0.30000000000000004 0.2
0.5 0.30000000000000004 0.2
0.6000000000000001 0.30000000000000004 0.2
0.7000000000000001 0.30000000000000004 0.2
0.8 0.30000000000000004 0.2
0.9 0.30000000000000004 0.2
1.0 0.30000000000000004 0.2
0.0 0.4 0.2
0.1 0.4 0.2
0.2 0.4 0.2
0.30000000000000004 0.4 0.2
0.4 0.4 0.2
0.5 0.4 0.2
0.6000000000000001 0.4 0.2
0.7000000000000001 0.4 0.2
0.8 0.4 0.2
0.9 0.4 0.2
1.0 0.4 0.2
0.0 0.5 0.2
0.1 0.5 0.2
0.2 0.5 0.2
0.30000000000000004 0.5 0.2
0.4 0.5 0.2
0.5 0.5 0.2
0.6000000000000001 0.5 0.2
0.7000000000000001 0.5 0.2
0.8 0.5 0.2
0.9 0.5 0.2
1.0 0.5 0.2
0.0 0.6000000000000001 0.2
0.1 0.6000000000000001 0.2
0.2 0.6000000000000001 0.2
0.30000000000000004 0.6000000000000001 0.2
0.4 0.6000000000000001 0.2
0.5 0.6000000000000001 0.2
0.6000000000000001 0.6000000000000001 0.2
0.7000000000000001 0.6000000000000001 0.2
0.8 0.6000000000000001 0.2
0.9 0.6000000000000001 0.2
1.0 0.6000000000000001 0.2
0.0 0.7000000000000001 0.2
0.1 0.7000000000000001 0.2
0.2 0.7000000000000001 0.2
0.30000000000000004 0.7000000000000001 0.2
0.4 0.7000000000000001 0.2
0.5 0.7000000000000001 0.2
0.6000000000000001 0.7000000000000001 0.2
0.7000000000000001 0.7000000000000001 0.2
0.8 0.7000000000000001 0.2
0.9 0.7000000000000001 0.2
1.0 0.7000000000000001 0.2
0.0 0.8 0.2
0.1 0.8 0.2
0.2 0.8 0.2
0.30000000000000004 0.8 0.2
0.4 0.8 0.2
0.5 0.8 0.2
0.6000000000000001 0.8 0.2
0.7000000000000001 0.8 0.2
0.8 0.8 0.2
0.9 0.8 0.2
1.0 0.8 0.2
0.0 0.9 0.2
0.1 0.9 0.2
0.2 0.9 0.2
0.30000000000000004 0.9 0.2
0.4 0.9 0.2
0.5 0.9 0.2
0.6000000000000001 0.9 0.2
0.7000000000000001 0.9 0.2
0.8 0.9 0.2
0.9 0.9 0.2
1.0 0.9 0.2
0.0 1.0 0.2
0.1 1.0 0.2
0.2 1.0 0.2
0.30000000000000004 1.0 0.2
0.4 1.0 0.2
0.5 1.0 0.2
0.6000000000000001 1.0 0.2
0.7000000000000001 1.0 0.2
0.8 1.0 0.2
0.9 1.0 0.2
1.0 1.0 0.2
0.0 0.0 0.30000000000000004
0.1 0.0 0.30000000000000004
0.2 0.0 0.30000000000000004
0.30000000000000004 0.0 0.30000000000000004
0.4 0.0 0.30000000000000004
0.5 0.0 0.30000000000000004
0.6000000000000001 0.0 0.30000000000000004
0.7000000000000001 0.0 0.30000000000000004
0.8 0.0 0.30000000000000004
0.9 0.0 0.30000000000000004
1.0 0.0 0.30000000000000004
0.0 0.1 0.30000000000000004
0.1 0.1 0.30000000000000004
0.2 0.1 0.30000000000000004
0.30000000000000004 0.1 0.30000000000000004
0.4 0.1 0.30000000000000004
0.5 0.1 0.30000000000000004
0.6000000000000001 0.1 0.30000000000000004
0.7000000000000001 0.1 0.30000000000000004
0.8 0.1 0.30000000000000004
0.9 0.1 0.30000000000000004
1.0 0.1 0.30000000000000004
0.0 0.2 0.30000000000000004
0.1 0.2 0.30000000000000004
0.2 0.2 0.30000000000000004
0.30000000000000004 0.2 0.30000000000000004
0.4 0.2 0.30000000000000004
0.5 0.2 0.30000000000000004
0.6000000000000001 0.2 0.30000000000000004
0.7000000000000001 0.2 0.30000000000000004
0.8 0.2 0.30000000000000004
0.9 0.2 0.30000000000000004
1.0 0.2 0.30000000000000004
0.0 0.30000000000000004 0.30000000000000004
0.1 0.30000000000000004 0.30000000000000004
0.2 0.30000000000000004 0.30000000000000004
0.30000000000000004 0.30000000000000004 0.30000000000000004
0.4 0.30000000000000004 0.30000000000000004
0.5 0.30000000000000004 0.30000000000000004
0.6000000000000001 0.30000000000000004 0.30000000000000004
0.7000000000000001 0.30000000000000004 0.30000000000000004
0.8 0.30000000000000004 0.30000000000000004
0.9 0.30000000000000004 0.30000000000000004
1.0 0.30000000000000004 0.30000000000000004
0.0 0.4 0.30000000000000004
0.1 0.4 0.30000000000000004
0.2 0.4 0.30000000000000004
0.30000000000000004 0.4 0.30000000000000004
0.4 0.4 0.30000000000000004
0.5 0.4 0.30000000000000004
0.6000000000000001 0.4 0.30000000000000004
0.7000000000000001 0.4 0.30000000000000004
0.8 0.4 0.30000000000000004
0.9 0.4 0.30000000000000004
1.0 0.4 0.30000000000000004
0.0 0.5 0.30000000000000004
0.1 0.5 0.30000000000000004
0.2 0.5 0.30000000000000004
0.30000000000000004 0.5 0.30000000000000004
0.4 0.5 0.30000000000000004
0.5 0.5 0.30000000000000004
0.6000000000000001 0.5 0.30000000000000004
0.7000000000000001 0.5 0.30000000000000004
0.8 0.5 0.30000000000000004
0.9 0.5 0.30000000000000004
1.0 0.5 0.30000000000000004
0.0 0.6000000000000001 0.30000000000000004
0.1 0.6000000000000001 0.30000000000000004
0.2 0.6000000000000001 0.30000000000000004
0.30000000000000004 0.6000000000000001 0.30000000000000004
[...]
POINT_DATA 1331
VECTORS Disp float
0.0 0.0 0.0
0.0 0.0 0.0
0.0 0.0 0.0
0.0 0.0 0.0
0.0 0.0 0.0
0.0 0.0 0.0
0.0 0.0 0.0
0.0 0.0 0.0
0.0 0.0 0.0
0.0 0.0 0.0
0.0 0.0 0.0
0.03414818456066045 0.012214398502251044 0.038222240495662196
0.0269342868368723 0.005475973131871744 0.018339730541279572
0.02470754456320528 0.0029839974533456466 0.012037200129969736
0.025062042941552697 0.001709136659271303 0.00864727313870146
0.026332736256793485 0.001132422221148682 0.006317574651941687
0.027451828259463285 0.0008796438419133325 0.00443635659856978
0.027938225645689155 0.0007575724001223117 0.00283639652061933
0.027697439017934106 0.0006285123141350274 0.0014611581298861697
0.02706404738712522 0.0001768161007803093 0.00018109477886580033
0.0268743864512636 -3.843394113607103e-05 -0.003336872630047526
0.023712396918595745 -0.006581013098913452 -0.03156603903839943
0.068688098802087 0.03352329719997592 0.0461428444068505
0.05938200385298201 0.014931093716872184 0.027886676148455514
0.056736989531573426 0.007295229352876582 0.0169061299101539
0.0573667356939537 0.003768406996799301 0.011841115949238685
0.058989021260509894 0.002227989149346029 0.008530073738794133
0.06047236176815489 0.0015995894600299328 0.006153017653813066
0.06133444443796284 0.0013296093736335848 0.004297967501478188
0.061462022733953674 0.0009357345793014407 0.0026370823677672813
0.061126123480914785 -0.000203491115264346 0.0006527229018084184
0.061016109974238376 -0.0026114708897604618 -0.006871251492796216
0.055095379272192005 -0.01991164996984035 -0.0299084072511958
0.10980250824900027 0.04889897389294003 0.04099577332442382
0.0998706375956855 0.021859995542986965 0.027226137574556
0.09722687800190898 0.00986912019337934 0.01763477032718587
0.09795977361551805 0.004686087920152467 0.012419945569022943
0.09972778002073308 0.0024589981660433444 0.009237300136060106
0.10151426329287325 0.0015705429457909842 0.007154810908969847
0.10291765661840115 0.0011070945879734682 0.005687926359698664
0.1038841055203987 0.0002558183853260989 0.004410006209733483
0.10467225379354633 -0.0020368456671256605 0.002169751924286696
0.10538490929991144 -0.008192242110630231 -0.0033432482198677703
0.09809657298054289 -0.034424336906608385 -0.016779537913474387
0.15659625352639078 0.05532593342195851 0.028984443332944934
0.14643980125690897 0.023653133928488237 0.02047085004720786
0.14447954825905052 0.01006268772435266 0.014817170246225355
0.14541799517148724 0.004300513568766782 0.011072447477738112
0.14718839434431366 0.0018973536349560585 0.008782470950849487
0.14904366946699438 0.0009387623117895457 0.007464971381698481
0.15070606811952178 0.0002571697720957352 0.006763664298890077
0.1521395088029268 -0.0012128278676663798 0.0063069196551148975
0.15335155537138967 -0.005112104357561492 0.005456510288578246
0.15371845754041974 -0.014840835537234972 0.0032395198094748593
0.14517657935678552 -0.046398764563245515 -0.0013012909656158831
0.20610661552555337 0.05377476026292916 0.013743784456004075
0.19642293677284708 0.02062624440007451 0.011349399178564788
0.19560238562083448 0.008165448278385347 0.009938223241929762
0.1966759522245058 0.002936382815468658 0.008496245270137714
0.1982708798131729 0.0008624933767957656 0.0076305346648371285
0.19999999999999984 -2.826128865724056e-17 0.007338029712341644
0.20172912018682698 -0.0008624933767957185 0.007630534664837227
0.2033240477754942 -0.0029363828154686435 0.008496245270137825
0.2043976143791656 -0.008165448278385291 0.009938223241929821
0.20357706322715297 -0.02062624440007455 0.011349399178564867
0.19389338447444673 -0.053774760262929225 0.013743784456004254
0.25482342064321484 0.046398764563245404 -0.0013012909656160622
0.24628154245958053 0.01484083553723495 0.003239519809474735
0.2466484446286106 0.005112104357561567 0.005456510288578082
0.2478604911970735 0.0012128278676664449 0.006306919655114795
0.24929393188047844 -0.0002571697720957088 0.006763664298890004
0.2509563305330058 -0.0009387623117895932 0.00746497138169846
0.2528116056556865 -0.0018973536349560732 0.008782470950849466
0.2545820048285129 -0.004300513568766803 0.011072447477738119
0.25552045174094956 -0.01006268772435271 0.014817170246225413
0.25356019874309116 -0.02365313392848821 0.020470850047207983
0.24340374647360924 -0.0553259334219586 0.028984443332945004
0.30190342701945766 0.034424336906608226 -0.01677953791347457
0.29461509070008907 0.008192242110630183 -0.0033432482198678505
0.2953277462064542 0.002036845667125747 0.002169751924286589
0.29611589447960174 -0.00025581838532602895 0.004410006209733284
0.29708234338159917 -0.0011070945879734532 0.005687926359698549
0.29848573670712697 -0.0015705429457910148 0.007154810908969831
0.3002722199792671 -0.002458998166043394 0.009237300136060085
0.30204022638448214 -0.004686087920152514 0.012419945569022948
0.30277312199809125 -0.009869120193379382 0.017634770327185884
0.3001293624043148 -0.0218599955429869 0.027226137574556084
0.2901974917509999 -0.048898973892940005 0.04099577332442387
0.34490462072780814 0.019911649969840243 -0.0299084072511959
0.33898389002576185 0.0026114708897604917 -0.006871251492796295
0.3388738765190854 0.00020349111526441372 0.0006527229018083839
0.3385379772660466 -0.0009357345793014291 0.002637082367767255
0.3386655555620375 -0.0013296093736335805 0.004297967501478197
0.33952763823184545 -0.0015995894600299497 0.006153017653813063
0.34101097873949043 -0.0022279891493460586 0.008530073738794136
0.34263326430604657 -0.003768406996799337 0.011841115949238664
0.3432630104684269 -0.00729522935287663 0.016906129910153878
0.3406179961470184 -0.014931093716872144 0.027886676148455507
0.33131190119791337 -0.03352329719997593 0.046142844406850576
0.37628760308140435 0.00658101309891345 -0.03156603903839925
0.3731256135487366 3.843394113610529e-05 -0.003336872630047593
0.37293595261287493 -0.00017681610078031137 0.00018109477886569744
0.37230256098206604 -0.0006285123141350528 0.001461158129886141
0.37206177435431104 -0.0007575724001223125 0.0028363965206192948
0.37254817174053695 -0.0008796438419133225 0.004436356598569744
0.3736672637432067 -0.0011324222211486878 0.00631757465194162
0.37493795705844746 -0.001709136659271307 0.008647273138701351
0.37529245543679485 -0.0029839974533456743 0.01203720012996969
0.37306571316312787 -0.0054759731318717135 0.01833973054127958
0.36585181543933976 -0.012214398502251018 0.03822224049566227
0.39999999999999997 0.0 0.0
0.39999999999999997 0.0 0.0
0.39999999999999997 0.0 0.0
0.39999999999999997 0.0 0.0
0.39999999999999997 0.0 0.0
0.39999999999999997 0.0 0.0
0.39999999999999997 0.0 0.0
0.39999999999999997 0.0 0.0
0.39999999999999997 0.0 0.0
0.39999999999999997 0.0 0.0
0.39999999999999997 0.0 0.0
0.0 0.0 0.0
0.0 0.0 0.0
0.0 0.0 0.0
0.0 0.0 0.0
0.0 0.0 0.0
0.0 0.0 0.0
0.0 0.0 0.0
0.0 0.0 0.0
0.0 0.0 0.0
0.0 0.0 0.0
0.0 0.0 0.0
0.04075408768362573 0.010421744097742273 0.02579447766344753
0.033759615915831244 0.003792971706470791 0.013163879572810733
0.030955439129814993 0.0019750050758431214 0.0084601568874682
0.030064114040695974 0.000993933251451185 0.0057796153598466665
0.030177324735422263 0.000545833524872948 0.004105791169533511
0.03059796223603497 0.0003116899577007088 0.0029109840505956172
0.030985121487873267 0.0001551471912526029 0.0019841584991079
0.031333834338810734 -4.791694792533571e-05 0.0011880581129512058
0.03203021411038616 -0.000558698892958918 0.00023929956895936584
0.03384417345838088 -0.0016241611695592157 -0.002992582168787602
0.03508415995023802 -0.009762256093865865 -0.021071741708172446
0.07879535114328709 0.031183670688828442 0.03225666354566518
0.06793141539107461 0.013469540395630098 0.020484587997661022
0.0632098722338772 0.00649602933260081 0.012437742510013798
0.06189277899987322 0.003234924165489388 0.008582877390879788
0.06217781405411389 0.00164641145963917 0.006177864397060005
0.06300696611659759 0.0008515899685485167 0.004583502352875469
0.06388657681661626 0.00030400409303431216 0.0034177579336375514
0.06482810875493947 -0.0005368453873634204 0.002337768246642665
0.06633867176659418 -0.002351367461951353 0.0006407495480675159
0.06883231801035017 -0.00704988871406137 -0.0055923883504947385
0.06805833638083907 -0.026519905503917442 -0.02061884280360782
0.11985483149819114 0.04883778321504943 0.02960775800560391
0.10799923846384962 0.022719202221419064 0.020489825621198686
0.10292792674841346 0.010476476816392247 0.01348908883053557
0.10180552614943815 0.004915812540896475 0.009470032328269387
0.10239996036576225 0.0022649236385409274 0.007107906346120973
0.10360772087852643 0.0009592116032953486 0.0056510498160303015
0.10496203169712465 -3.521401107603167e-05 0.004675274067430742
0.10640298893791642 -0.001704213298554738 0.003715167886081781
0.10814601942034431 -0.005340758160731924 0.001678827185202578
0.1097613006296084 -0.01465404335091372 -0.002832482316064096
0.10576205636616537 -0.04263536889552709 -0.01188269227264417
0.16393720387838773 0.05840592729762565 0.02122103845390881
0.15260623749084457 0.02728209551164816 0.015765035919276908
0.14843027032005887 0.012190735079846533 0.01151128713388325
0.147910459112658 0.005380773785530634 0.008729618055435562
0.14878915835952214 0.002208962063031417 0.0070457006511695
0.15017459011269446 0.0006122453524660852 0.006119470066090775
0.15168193618874803 -0.0007797890976513691 0.005635750681637934
0.15315256101716015 -0.0032585874623044424 0.005206816754199319
0.15438819284618874 -0.00870866968568438 0.004300599110969486
0.1540317331293341 -0.021727062988026073 0.002472323991726746
0.14663903395753147 -0.054106264692908496 -0.0010264856992253223
0.2095084179928368 0.05960494764602487 0.009927168419420557
0.19961769308450836 0.026457366095749103 0.008882232373303154
0.19713344454260404 0.011344693233693023 0.007814793037955974
0.19743150407131937 0.004678147734702515 0.006904353712631915
0.1985745327032656 0.0016179048974264236 0.006321018245072707
0.1999999999999999 -1.9665669656751063e-17 0.006121118081314464
0.20142546729673425 -0.0016179048974263855 0.00632101824507275
0.20256849592868054 -0.004678147734702429 0.006904353712632021
0.20286655545739582 -0.011344693233692988 0.007814793037956073
0.20038230691549147 -0.02645736609574906 0.008882232373303246
0.19049158200716304 -0.059604947646024885 0.009927168419420651
0.2533609660424687 0.05410626469290835 -0.0010264856992254576
0.24596826687066606 0.021727062988026055 0.0024723239917266316
0.2456118071538114 0.008708669685684404 0.004300599110969322
0.24684743898284 0.003258587462304528 0.005206816754199193
0.24831806381125213 0.0007797890976513839 0.005635750681637885
0.2498254098873057 -0.0006122453524660886 0.006119470066090756
0.25121084164047797 -0.0022089620630313983 0.00704570065116956
0.2520895408873421 -0.0053807737855305635 0.008729618055435623
0.2515697296799411 -0.012190735079846521 0.011511287133883339
0.24739376250915546 -0.027282095511648147 0.015765035919277002
0.23606279612161224 -0.058405927297625636 0.021221038453908936
0.29423794363383493 0.04263536889552693 -0.011882692272644354
0.29023869937039193 0.014654043350913713 -0.0028324823160641695
0.29185398057965606 0.005340758160731956 0.0016788271852025173
0.29359701106208386 0.0017042132985547978 0.0037151678860816717
0.2950379683028756 3.521401107596045e-05 0.0046752740674306835
0.2963922791214738 -0.000959211603295359 0.00565104981603029
0.297600039634238 -0.0022649236385409235 0.007107906346121003
0.2981944738505621 -0.004915812540896399 0.009470032328269373
0.2970720732515867 -0.010476476816392256 0.013489088830535581
0.2920007615361505 -0.02271920222141907 0.020489825621198738
0.28014516850180904 -0.04883778321504946 0.029607758005603967
0.33194166361916116 0.026519905503917324 -0.020618842803607852
0.33116768198965013 0.007049888714061416 -0.005592388350494819
0.33366132823340616 0.002351367461951399 0.0006407495480674471
0.3351718912450609 0.0005368453873634478 0.0023377682466426287
0.33611342318338405 -0.0003040040930343726 0.0034177579336375427
0.3369930338834026 -0.0008515899685485212 0.0045835023528754465
0.33782218594588637 -0.0016464114596391702 0.006177864397059976
0.33810722100012713 -0.0032349241654893728 0.008582877390879737
0.3367901277661232 -0.006496029332600861 0.012437742510013755
0.3320685846089258 -0.013469540395630154 0.020484587997661032
0.32120464885671324 -0.031183670688828533 0.03225666354566524
0.3649158400497621 0.009762256093865818 -0.021071741708172356
0.3661558265416193 0.0016241611695592155 -0.002992582168787655
0.36796978588961404 0.0005586988929589652 0.00023929956895931337
0.3686661656611895 4.791694792535192e-05 0.0011880581129511797
0.369014878512127 -0.00015514719125259325 0.0019841584991078143
0.3694020377639653 -0.0003116899577007133 0.0029109840505955453
0.36982267526457796 -0.0005458335248729605 0.00410579116953345
0.36993588595930427 -0.0009939332514511876 0.005779615359846619
0.36904456087018517 -0.001975005075843168 0.008460156887468167
0.36624038408416887 -0.0037929717064708168 0.013163879572810722
0.35924591231637437 -0.010421744097742304 0.02579447766344756
0.39999999999999997 0.0 0.0
0.39999999999999997 0.0 0.0
0.39999999999999997 0.0 0.0
0.39999999999999997 0.0 0.0
0.39999999999999997 0.0 0.0
0.39999999999999997 0.0 0.0
0.39999999999999997 0.0 0.0
0.39999999999999997 0.0 0.0
0.39999999999999997 0.0 0.0
0.39999999999999997 0.0 0.0
0.39999999999999997 0.0 0.0
0.0 0.0 0.0
0.0 0.0 0.0
0.0 0.0 0.0
0.0 0.0 0.0
0.0 0.0 0.0
0.0 0.0 0.0
0.0 0.0 0.0
0.0 0.0 0.0
0.0 0.0 0.0
0.0 0.0 0.0
0.0 0.0 0.0
0.04580877939167225 0.0107361441578101 0.01635595903893977
0.037157786006932536 0.003918418335508694 0.0093328719502375
0.033785504612793456 0.0021356644087470143 0.0061959896983150384
0.03237029079573711 0.0010460916261012063 0.004146548414981753
0.03205500037379805 0.0005417526054779159 0.002875810362146068
0.03222932436013481 0.0002670225594123355 0.0020409159231713587
0.03260080603965306 7.099637243901791e-05 0.001437951575101682
0.033173834436424646 -0.0002033113181253738 0.0009050914052173254
0.03433142459362491 -0.0008953839455511734 3.375620817430984e-05
0.03696051817993149 -0.0025637271373502957 -0.0024072729027719
0.041298134749214864 -0.01061359996560567 -0.012405399046473599
0.08371634410326105 0.030768194142250037 0.02133242725024419
0.07212498042083242 0.01379225656771778 0.01442739382022548
0.06682281784337268 0.006649079252466334 0.009081699779202614
0.0649344550065002 0.003210310158847051 0.00619011463664328
0.06474276076597835 0.0015013144074091096 0.004402958480037098
0.06531791137819135 0.000603927234094361 0.003275467760146811
0.06622527040693968 -5.418279237511234e-05 0.0024753630419303107
0.06744690936084485 -0.0010559780458420074 0.0016497461894061237
0.06932123662155101 -0.003231780917207816 0.00014542533910084443
0.07212246191796948 -0.009344646521194171 -0.004274881917530556
0.07443540838153664 -0.027470244963139472 -0.01261931038501549
0.1239993954812187 0.047551819191832954 0.02018934381670695
0.11207321710968203 0.023144662869633063 0.014574802991345776
0.10641043097338401 0.010902942279008988 0.009902473371691731
0.10457431891874032 0.0050626595307398424 0.006936192976853735
0.10463340705652442 0.0021908604564148575 0.005198539467999868
0.10553840079859056 0.0006672782919419982 0.004149169194496926
0.10682628352713136 -0.0005534055689841989 0.003432894861870077
0.10838833154177446 -0.002506212291346795 0.0026171775402233925
0.1102605913541115 -0.006695088288457855 0.0009054353340344611
0.1116315830951994 -0.017502498519170302 -0.002246878721324562
0.11015381257101596 -0.04294820497715113 -0.007417090035342746
0.16670916754730167 0.05715308377366092 0.01469489998472923
0.15576236644565344 0.028327209388248637 0.011369199220258835
0.15091173753423198 0.013171667745586594 0.008431479113972374
0.14969233146140548 0.005895961161858542 0.006437497979573566
0.15012300842338996 0.0023501227231177042 0.005246031589862889
0.15123618529712066 0.0004288800117454394 0.004588964047488797
0.15259155359560944 -0.0012816327052262671 0.004205651405914403
0.15395170260695848 -0.004176803175025591 0.0037673038265056405
0.15496869229548216 -0.010304038797348014 0.0029683470296336745
0.15409983067302402 -0.02444923104663468 0.0017529528605565823
0.14862229263820556 -0.05388875675345309 -0.0004893018823168124
0.21004543229615308 0.0589398892687607 0.006876287327102261
0.20125391790179367 0.028489685986508015 0.006451991390483607
0.19811398462658944 0.012804082555217497 0.0056748159987086355
0.19791450967274116 0.005493552466774844 0.00510216217270076
0.19877844131211508 0.0019746088334041683 0.004765477948836763
0.20000000000000004 1.3407633981574599e-17 0.0046495193709070745
0.201221558687885 -0.0019746088334041795 0.004765477948836786
0.20208549032725895 -0.005493552466774796 0.005102162172700885
0.20188601537341067 -0.012804082555217448 0.0056748159987087595
0.19874608209820638 -0.02848968598650803 0.00645199139048372
0.18995456770384694 -0.0589398892687608 0.006876287327102314
0.25137770736179454 0.05388875675345299 -0.0004893018823168949
0.24590016932697611 0.024449231046634656 0.0017529528605564853
0.24503130770451795 0.010304038797348059 0.002968347029633583
0.24604829739304154 0.004176803175025657 0.003767303826505537
0.24740844640439047 0.0012816327052262472 0.004205651405914373
0.24876381470287925 -0.00042888001174545853 0.0045889640474887925
0.24987699157660992 -0.0023501227231176843 0.005246031589862988
0.25030766853859443 -0.005895961161858506 0.006437497979573648
0.24908826246576798 -0.013171667745586552 0.008431479113972445
0.24423763355434652 -0.0283272093882486 0.0113691992202589
0.23329083245269827 -0.05715308377366093 0.014694899984729306
0.28984618742898427 0.042948204977150975 -0.007417090035342915
0.28836841690480086 0.017502498519170268 -0.0022468787213246397
0.2897394086458888 0.006695088288457839 0.0009054353340344294
0.29161166845822584 0.0025062122913468653 0.00261717754022336
0.2931737164728689 0.0005534055689841741 0.003432894861870074
0.2944615992014096 -0.0006672782919420256 0.004149169194496913
0.2953665929434758 -0.0021908604564148597 0.005198539467999919
0.2954256810812599 -0.005062659530739814 0.006936192976853762
0.2935895690266162 -0.010902942279009002 0.009902473371691783
0.28792678289031826 -0.023144662869633056 0.014574802991345816
0.2760006045187816 -0.04755181919183294 0.020189343816707006
0.32556459161846363 0.02747024496313934 -0.012619310385015558
0.32787753808203085 0.00934464652119413 -0.004274881917530635
0.3306787633784493 0.003231780917207802 0.00014542533910079955
0.33255309063915545 0.001055978045842067 0.0016497461894061129
0.3337747295930606 5.4182792375105536e-05 0.0024753630419302925
0.3346820886218089 -0.0006039272340943862 0.003275467760146769
0.33525723923402195 -0.0015013144074091218 0.004402958480037057
0.33506554499350005 -0.0032103101588470727 0.006190114636643252
0.33317718215662756 -0.006649079252466385 0.009081699779202585
0.3278750195791678 -0.013792256567717803 0.014427393820225481
0.3162836558967393 -0.030768194142250013 0.021332427250244243
0.35870186525078535 0.010613599965605578 -0.012405399046473583
0.36303948182006873 0.002563727137350286 -0.0024072729027719533
0.3656685754063753 0.0008953839455511742 3.375620817426794e-05
0.3668261655635756 0.00020331131812540072 0.0009050914052172957
0.3673991939603472 -7.099637243900811e-05 0.0014379515751015834
0.36777067563986543 -0.0002670225594123666 0.00204091592317131
0.36794499962620214 -0.0005417526054779037 0.0028758103621460184
0.367629709204263 -0.0010460916261012224 0.0041465484149817294
0.36621449538720663 -0.002135664408747035 0.006195989698315048
0.3628422139930675 -0.003918418335508682 0.009332871950237454
0.3541912206083278 -0.01073614415781007 0.01635595903893975
0.39999999999999997 0.0 0.0
0.39999999999999997 0.0 0.0
0.39999999999999997 0.0 0.0
0.39999999999999997 0.0 0.0
0.39999999999999997 0.0 0.0
0.39999999999999997 0.0 0.0
0.39999999999999997 0.0 0.0
0.39999999999999997 0.0 0.0
0.39999999999999997 0.0 0.0
0.39999999999999997 0.0 0.0
0.39999999999999997 0.0 0.0
0.0 0.0 0.0