# vtk DataFile Version 3.0
Some data
ASCII
DATASET UNSTRUCTURED_GRID
POINTS 1331 float
0.0 0.0 0.0
0.1 0.0 0.0
0.2 0.0 0.0
0.30000000000000004 0.0 0.0
0.4 0.0 0.0
0.5 0.0 0.0
0.6000000000000001 0.0 0.0
0.7000000000000001 0.0 0.0
0.8 0.0 0.0
0.9 0.0 0.0
1.0 0.0 0.0
0.0 0.1 0.0
0.1 0.1 0.0
0.2 0.1 0.0
0.30000000000000004 0.1 0.0
0.4 0.1 0.0
0.5 0.1 0.0
0.6000000000000001 0.1 0.0
0.7000000000000001 0.1 0.0
0.8 0.1 0.0
0.9 0.1 0.0
1.0 0.1 0.0
0.0 0.2 0.0
0.1 0.2 0.0
0.2 0.2 0.0
0.30000000000000004 0.2 0.0
0.4 0.2 0.0
0.5 0.2 0.0
0.6000000000000001 0.2 0.0
0.7000000000000001 0.2 0.0
0.8 0.2 0.0
0.9 0.2 0.0
1.0 0.2 0.0
0.0 0.30000000000000004 0.0
0.1 0.30000000000000004 0.0
0.2 0.30000000000000004 0.0
0.30000000000000004 0.30000000000000004 0.0
0.4 0.30000000000000004 0.0
0.5 0.30000000000000004 0.0
0.6000000000000001 0.30000000000000004 0.0
0.7000000000000001 0.30000000000000004 0.0
0.8 0.30000000000000004 0.0
0.9 0.30000000000000004 0.0
1.0 0.30000000000000004 0.0
0.0 0.4 0.0
0.1 0.4 0.0
0.2 0.4 0.0
0.30000000000000004 0.4 0.0
0.4 0.4 0.0
0.5 0.4 0.0
0.6000000000000001 0.4 0.0
0.7000000000000001 0.4 0.0
0.8 0.4 0.0
0.9 0.4 0.0
1.0 0.4 0.0
0.0 0.5 0.0
0.1 0.5 0.0
0.2 0.5 0.0
0.30000000000000004 0.5 0.0
0.4 0.5 0.0
0.5 0.5 0.0
0.6000000000000001 0.5 0.0
0.7000000000000001 0.5 0.0
0.8 0.5 0.0
0.9 0.5 0.0
1.0 0.5 0.0
0.0 0.6000000000000001 0.0
0.1 0.6000000000000001 0.0
0.2 0.6000000000000001 0.0
0.30000000000000004 0.6000000000000001 0.0
0.4 0.6000000000000001 0.0
0.5 0.6000000000000001 0.0
0.6000000000000001 0.6000000000000001 0.0
0.7000000000000001 0.6000000000000001 0.0
0.8 0.6000000000000001 0.0
0.9 0.6000000000000001 0.0
1.0 0.6000000000000001 0.0
0.0 0.7000000000000001 0.0
0.1 0.7000000000000001 0.0
0.2 0.7000000000000001 0.0
0.30000000000000004 0.7000000000000001 0.0
0.4 0.7000000000000001 0.0
0.5 0.7000000000000001 0.0
0.6000000000000001 0.7000000000000001 0.0
0.7000000000000001 0.7000000000000001 0.0
0.8 0.7000000000000001 0.0
0.9 0.7000000000000001 0.0
1.0 0.7000000000000001 0.0
0.0 0.8 0.0
0.1 0.8 0.0
0.2 0.8 0.0
0.30000000000000004 0.8 0.0
0.4 0.8 0.0
0.5 0.8 0.0
0.6000000000000001 0.8 0.0
0.7000000000000001 0.8 0.0
0.8 0.8 0.0
0.9 0.8 0.0
1.0 0.8 0.0
0.0 0.9 0.0
0.1 0.9 0.0
0.2 0.9 0.0
0.30000000000000004 0.9 0.0
0.4 0.9 0.0
0.5 0.9 0.0
0.6000000000000001 0.9 0.0
0.7000000000000001 0.9 0.0
0.8 0.9 0.0
0.9 0.9 0.0
1.0 0.9 0.0
0.0 1.0 0.0
0.1 1.0 0.0
0.2 1.0 0.0
0.30000000000000004 1.0 0.0
0.4 1.0 0.0
0.5 1.0 0.0
0.6000000000000001 1.0 0.0
0.7000000000000001 1.0 0.0
0.8 1.0 0.0
0.9 1.0 0.0
1.0 1.0 0.0
0.0 0.0 0.1
0.1 0.0 0.1
0.2 0.0 0.1
0.30000000000000004 0.0 0.1
0.4 0.0 0.1
0.5 0.0 0.1
0.6000000000000001 0.0 0.1
0.7000000000000001 0.0 0.1
0.8 0.0 0.1
0.9 0.0 0.1
1.0 0.0 0.1
0.0 0.1 0.1
0.1 0.1 0.1
0.2 0.1 0.1
0.30000000000000004 0.1 0.1
0.4 0.1 0.1
0.5 0.1 0.1
0.6000000000000001 0.1 0.1
0.7000000000000001 0.1 0.1
0.8 0.1 0.1
0.9 0.1 0.1
1.0 0.1 0.1
0.0 0.2 0.1
0.1 0.2 0.1
0.2 0.2 0.1
0.30000000000000004 0.2 0.1
0.4 0.2 0.1
0.5 0.2 0.1
0.6000000000000001 0.2 0.1
0.7000000000000001 0.2 0.1
0.8 0.2 0.1
0.9 0.2 0.1
1.0 0.2 0.1
0.0 0.30000000000000004 0.1
0.1 0.30000000000000004 0.1
0.2 0.30000000000000004 0.1
0.30000000000000004 0.30000000000000004 0.1
0.4 0.30000000000000004 0.1
0.5 0.30000000000000004 0.1
0.6000000000000001 0.30000000000000004 0.1
0.7000000000000001 0.30000000000000004 0.1
0.8 0.30000000000000004 0.1
0.9 0.30000000000000004 0.1
1.0 0.30000000000000004 0.1
0.0 0.4 0.1
0.1 0.4 0.1
0.2 0.4 0.1
0.30000000000000004 0.4 0.1
0.4 0.4 0.1
0.5 0.4 0.1
0.6000000000000001 0.4 0.1
0.7000000000000001 0.4 0.1
0.8 0.4 0.1
0.9 0.4 0.1
1.0 0.4 0.1
0.0 0.5 0.1
0.1 0.5 0.1
0.2 0.5 0.1
0.30000000000000004 0.5 0.1
0.4 0.5 0.1
0.5 0.5 0.1
0.6000000000000001 0.5 0.1
0.7000000000000001 0.5 0.1
0.8 0.5 0.1
0.9 0.5 0.1
1.0 0.5 0.1
0.0 0.6000000000000001 0.1
0.1 0.6000000000000001 0.1
0.2 0.6000000000000001 0.1
0.30000000000000004 0.6000000000000001 0.1
0.4 0.6000000000000001 0.1
0.5 0.6000000000000001 0.1
0.6000000000000001 0.6000000000000001 0.1
0.7000000000000001 0.6000000000000001 0.1
0.8 0.6000000000000001 0.1
0.9 0.6000000000000001 0.1
1.0 0.6000000000000001 0.1
0.0 0.7000000000000001 0.1
0.1 0.7000000000000001 0.1
0.2 0.7000000000000001 0.1
0.30000000000000004 0.7000000000000001 0.1
0.4 0.7000000000000001 0.1
0.5 0.7000000000000001 0.1
0.6000000000000001 0.7000000000000001 0.1
0.7000000000000001 0.7000000000000001 0.1
0.8 0.7000000000000001 0.1
0.9 0.7000000000000001 0.1
1.0 0.7000000000000001 0.1
0.0 0.8 0.1
0.1 0.8 0.1
0.2 0.8 0.1
0.30000000000000004 0.8 0.1
0.4 0.8 0.1
0.5 0.8 0.1
0.6000000000000001 0.8 0.1
0.7000000000000001 0.8 0.1
0.8 0.8 0.1
0.9 0.8 0.1
1.0 0.8 0.1
0.0 0.9 0.1
0.1 0.9 0.1
0.2 0.9 0.1
0.30000000000000004 0.9 0.1
0.4 0.9 0.1
0.5 0.9 0.1
0.6000000000000001 0.9 0.1
0.7000000000000001 0.9 0.1
0.8 0.9 0.1
0.9 0.9 0.1
1.0 0.9 0.1
0.0 1.0 0.1
0.1 1.0 0.1
0.2 1.0 0.1
0.30000000000000004 1.0 0.1
0.4 1.0 0.1
0.5 1.0 0.1
0.6000000000000001 1.0 0.1
0.7000000000000001 1.0 0.1
0.8 1.0 0.1
0.9 1.0 0.1
1.0 1.0 0.1
0.0 0.0 0.2
0.1 0.0 0.2
0.2 0.0 0.2
0.30000000000000004 0.0 0.2
0.4 0.0 0.2
0.5 0.0 0.2
0.6000000000000001 0.0 0.2
0.7000000000000001 0.0 0.2
0.8 0.0 0.2
0.9 0.0 0.2
1.0 0.0 0.2
0.0 0.1 0.2
0.1 0.1 0.2
0.2 0.1 0.2
0.30000000000000004 0.1 0.2
0.4 0.1 0.2
0.5 0.1 0.2
0.6000000000000001 0.1 0.2
0.7000000000000001 0.1 0.2
0.8 0.1 0.2
0.9 0.1 0.2
1.0 0.1 0.2
0.0 0.2 0.2
0.1 0.2 0.2
0.2 0.2 0.2
0.30000000000000004 0.2 0.2
0.4 0.2 0.2
0.5 0.2 0.2
0.6000000000000001 0.2 0.2
0.7000000000000001 0.2 0.2
0.8 0.2 0.2
0.9 0.2 0.2
1.0 0.2 0.2
0.0 0.30000000000000004 0.2
0.1 0.30000000000000004 0.2
0.2 0.30000000000000004 0.2
0.30000000000000004 0.30000000000000004 0.2
0.4 0.30000000000000004 0.2
0.5 0.30000000000000004 0.2
0.6000000000000001 0.30000000000000004 0.2
0.7000000000000001 0.30000000000000004 0.2
0.8 0.30000000000000004 0.2
0.9 0.30000000000000004 0.2
1.0 0.30000000000000004 0.2
0.0 0.4 0.2
0.1 0.4 0.2
0.2 0.4 0.2
0.30000000000000004 0.4 0.2
0.4 0.4 0.2
0.5 0.4 0.2
0.6000000000000001 0.4 0.2
0.7000000000000001 0.4 0.2
0.8 0.4 0.2
0.9 0.4 0.2
1.0 0.4 0.2
0.0 0.5 0.2
0.1 0.5 0.2
0.2 0.5 0.2
0.30000000000000004 0.5 0.2
0.4 0.5 0.2
0.5 0.5 0.2
0.6000000000000001 0.5 0.2
0.7000000000000001 0.5 0.2
0.8 0.5 0.2
0.9 0.5 0.2
1.0 0.5 0.2
0.0 0.6000000000000001 0.2
0.1 0.6000000000000001 0.2
0.2 0.6000000000000001 0.2
0.30000000000000004 0.6000000000000001 0.2
0.4 0.6000000000000001 0.2
0.5 0.6000000000000001 0.2
0.6000000000000001 0.6000000000000001 0.2
0.7000000000000001 0.6000000000000001 0.2
0.8 0.6000000000000001 0.2
0.9 0.6000000000000001 0.2
1.0 0.6000000000000001 0.2
0.0 0.7000000000000001 0.2
0.1 0.7000000000000001 0.2
0.2 0.7000000000000001 0.2
0.30000000000000004 0.7000000000000001 0.2
0.4 0.7000000000000001 0.2
0.5 0.7000000000000001 0.2
0.6000000000000001 0.7000000000000001 0.2
0.7000000000000001 0.7000000000000001 0.2
0.8 0.7000000000000001 0.2
0.9 0.7000000000000001 0.2
1.0 0.7000000000000001 0.2
0.0 0.8 0.2
0.1 0.8 0.2
0.2 0.8 0.2
0.30000000000000004 0.8 0.2
0.4 0.8 0.2
0.5 0.8 0.2
0.6000000000000001 0.8 0.2
0.7000000000000001 0.8 0.2
0.8 0.8 0.2
0.9 0.8 0.2
1.0 0.8 0.2
0.0 0.9 0.2
0.1 0.9 0.2
0.2 0.9 0.2
0.30000000000000004 0.9 0.2
0.4 0.9 0.2
0.5 0.9 0.2
0.6000000000000001 0.9 0.2
0.7000000000000001 0.9 0.2
0.8 0.9 0.2
0.9 0.9 0.2
1.0 0.9 0.2
0.0 1.0 0.2
0.1 1.0 0.2
0.2 1.0 0.2
0.30000000000000004 1.0 0.2
0.4 1.0 0.2
0.5 1.0 0.2
0.6000000000000001 1.0 0.2
0.7000000000000001 1.0 0.2
0.8 1.0 0.2
0.9 1.0 0.2
1.0 1.0 0.2
0.0 0.0 0.30000000000000004
0.1 0.0 0.30000000000000004
0.2 0.0 0.30000000000000004
0.30000000000000004 0.0 0.30000000000000004
0.4 0.0 0.30000000000000004
0.5 0.0 0.30000000000000004
0.6000000000000001 0.0 0.30000000000000004
0.7000000000000001 0.0 0.30000000000000004
0.8 0.0 0.30000000000000004
0.9 0.0 0.30000000000000004
1.0 0.0 0.30000000000000004
0.0 0.1 0.30000000000000004
0.1 0.1 0.30000000000000004
0.2 0.1 0.30000000000000004
0.30000000000000004 0.1 0.30000000000000004
0.4 0.1 0.30000000000000004
0.5 0.1 0.30000000000000004
0.6000000000000001 0.1 0.30000000000000004
0.7000000000000001 0.1 0.30000000000000004
0.8 0.1 0.30000000000000004
0.9 0.1 0.30000000000000004
1.0 0.1 0.30000000000000004
0.0 0.2 0.30000000000000004
0.1 0.2 0.30000000000000004
0.2 0.2 0.30000000000000004
0.30000000000000004 0.2 0.30000000000000004
0.4 0.2 0.30000000000000004
0.5 0.2 0.30000000000000004
0.6000000000000001 0.2 0.30000000000000004
0.7000000000000001 0.2 0.30000000000000004
0.8 0.2 0.30000000000000004
0.9 0.2 0.30000000000000004
1.0 0.2 0.30000000000000004
0.0 0.30000000000000004 0.30000000000000004
0.1 0.30000000000000004 0.30000000000000004
0.2 0.30000000000000004 0.30000000000000004
0.30000000000000004 0.30000000000000004 0.30000000000000004
0.4 0.30000000000000004 0.30000000000000004
0.5 0.30000000000000004 0.30000000000000004
0.6000000000000001 0.30000000000000004 0.30000000000000004
0.7000000000000001 0.30000000000000004 0.30000000000000004
0.8 0.30000000000000004 0.30000000000000004
0.9 0.30000000000000004 0.30000000000000004
1.0 0.30000000000000004 0.30000000000000004
0.0 0.4 0.30000000000000004
0.1 0.4 0.30000000000000004
0.2 0.4 0.30000000000000004
0.30000000000000004 0.4 0.30000000000000004
0.4 0.4 0.30000000000000004
0.5 0.4 0.30000000000000004
0.6000000000000001 0.4 0.30000000000000004
0.7000000000000001 0.4 0.30000000000000004
0.8 0.4 0.30000000000000004
0.9 0.4 0.30000000000000004
1.0 0.4 0.30000000000000004
0.0 0.5 0.30000000000000004
0.1 0.5 0.30000000000000004
0.2 0.5 0.30000000000000004
0.30000000000000004 0.5 0.30000000000000004
0.4 0.5 0.30000000000000004
0.5 0.5 0.30000000000000004
0.6000000000000001 0.5 0.30000000000000004
0.7000000000000001 0.5 0.30000000000000004
0.8 0.5 0.30000000000000004
0.9 0.5 0.30000000000000004
1.0 0.5 0.30000000000000004
0.0 0.6000000000000001 0.30000000000000004
0.1 0.6000000000000001 0.30000000000000004
0.2 0.6000000000000001 0.30000000000000004
0.30000000000000004 0.6000000000000001 0.30000000000000004
[...]
POINT_DATA 1331
VECTORS Disp float
0.0 0.0 0.0
0.0 0.0 0.0
0.0 0.0 0.0
0.0 0.0 0.0
0.0 0.0 0.0
0.0 0.0 0.0
0.0 0.0 0.0
0.0 0.0 0.0
0.0 0.0 0.0
0.0 0.0 0.0
0.0 0.0 0.0
0.019344197348223777 0.00980374009998034 0.02324914023497829
0.014085341658814693 0.004315234071934244 0.01162271096841888
0.012512553153240008 0.002064974514324004 0.007379491058472824
0.01283826176133827 0.0010328441678405503 0.004880350706311566
0.013605777916243015 0.0006040399057685271 0.0031833147166131282
0.014179878544442527 0.000413067177205284 0.0018215109506108038
0.014323676862702452 0.0003233703807997575 0.0006193349930558108
0.01396577995151843 0.00019938403113026692 -0.000539180319148887
0.013290271044609288 -0.00012678442346631864 -0.0016901146978865543
0.013198245578449699 -0.001030048976154691 -0.004253693035708154
0.013771286683080693 -0.007252266256541949 -0.019775143623101833
0.03922248455339119 0.024852576589921235 0.027699883089184602
0.03385527938012191 0.011173344162795513 0.01679445929135525
0.032205079430144654 0.004863214189527424 0.00988470732639468
0.03261656356287304 0.0022416319387291443 0.006492004557558469
0.03352946041801978 0.0011654439658267057 0.0041375238043296495
0.034269145639210866 0.0007238264798552506 0.0023500173241644195
0.03461235884459756 0.00048176059214709624 0.0008292469098754572
0.03454813735455889 7.469266666401954e-05 -0.0006423316315726148
0.03429145052781322 -0.0009306143248162818 -0.0023687949516787046
0.03438697801539286 -0.004114430255717294 -0.006753440083416074
0.033232399757811816 -0.018533853258352575 -0.01887379146442333
0.06542760652469343 0.03489405425797138 0.02396103590483701
0.060414880093629386 0.01562742658450267 0.015497021830303302
0.05895694363524749 0.006516236543580779 0.009874757507269438
0.05934971213985271 0.0028098894379369344 0.00654144954923418
0.06024251479526517 0.001281405655044197 0.004295995511649912
0.06108916661266373 0.0006508560466976167 0.0026847969153793146
0.06169545238127215 0.00019649763279708476 0.0013974791939731855
0.06208147771464825 -0.0006331922168085872 0.0001885865463678438
0.062425023461571354 -0.00270421788704464 -0.0015688899254727537
0.06296469954695193 -0.00823363724961437 -0.004391118579661711
0.060664677475830764 -0.02842647921375145 -0.011116712588713863
0.09599046482663018 0.03934234637193292 0.015855450813323103
0.0912303580584426 0.01682395145466631 0.01070934196109981
0.09023735266224386 0.006920143709049034 0.00759701235808642
0.09057665950471967 0.0027971953088686465 0.00528379522540379
0.09129680804725293 0.0010980388956511918 0.003729867657300238
0.09205549412783233 0.0003541444455642156 0.0027326214368819353
0.09270511396085658 -0.00029786233433336484 0.002072960680906671
0.09322688596267983 -0.001565098057382164 0.0015496297123786822
0.09363971285146802 -0.004737763892307555 0.0008646455721934117
0.09391788857156691 -0.01224239725010596 -0.00019242091608596675
0.09063565972178501 -0.03539891093446222 -0.0023910682492999905
0.12837218426355523 0.039078039262454914 0.006151185481901345
0.12412983828821252 0.015326352674710862 0.004791868606697524
0.12369979988406618 0.00623869157397167 0.004054992119861874
0.12393832267790725 0.002339443362378608 0.0032280264703455613
0.12442391677042977 0.0007543327979819307 0.0027383265057505327
0.12499999999999993 -3.432457567806684e-17 0.0025762009822395716
0.12557608322957012 -0.0007543327979819299 0.002738326505750622
0.12606167732209272 -0.002339443362378623 0.0032280264703456628
0.12630020011593382 -0.006238691573971631 0.004054992119861955
0.12587016171178747 -0.015326352674710875 0.004791868606697609
0.12162781573644478 -0.03907803926245495 0.00615118548190151
0.15936434027821506 0.03539891093446217 -0.0023910682493001566
0.15608211142843317 0.012242397250105947 -0.00019242091608608416
0.15636028714853203 0.004737763892307582 0.0008646455721932591
0.15677311403732017 0.0015650980573821938 0.0015496297123785844
0.15729488603914343 0.0002978623343333779 0.0020729606809065885
0.15794450587216763 -0.0003541444455642404 0.002732621436881877
0.158703191952747 -0.0010980388956511938 0.0037298676573002095
0.15942334049528023 -0.0027971953088686777 0.005283795225403839
0.15976264733775603 -0.006920143709049027 0.007597012358086509
0.1587696419415573 -0.01682395145466632 0.010709341961099893
0.15400953517336977 -0.03934234637193292 0.015855450813323207
0.18933532252416932 0.028426479213751427 -0.011116712588713992
0.18703530045304814 0.008233637249614394 -0.004391118579661796
0.1875749765384287 0.002704217887044652 -0.001568889925472866
0.18791852228535177 0.0006331922168086394 0.00018858654636766793
0.1883045476187278 -0.00019649763279706191 0.001397479193973054
0.18891083338733616 -0.0006508560466976043 0.002684796915379308
0.18975748520473473 -0.0012814056550441968 0.004295995511649957
0.19065028786014726 -0.0028098894379369297 0.006541449549234228
0.19104305636475247 -0.0065162365435807714 0.009874757507269499
0.18958511990637059 -0.015627426584502623 0.015497021830303387
0.18457239347530643 -0.03489405425797138 0.023961035904837086
0.216767600242188 0.018533853258352617 -0.01887379146442337
0.21561302198460702 0.004114430255717336 -0.006753440083416151
0.21570854947218668 0.0009306143248163147 -0.0023687949516787723
0.215451862645441 -7.46926666639652e-05 -0.0006423316315726784
0.21538764115540235 -0.00048176059214708974 0.0008292469098754688
0.2157308543607891 -0.0007238264798552227 0.002350017324164425
0.21647053958198018 -0.0011654439658267263 0.004137523804329702
0.21738343643712693 -0.0022416319387291474 0.006492004557558503
0.21779492056985528 -0.004863214189527429 0.009884707326394711
0.2161447206198781 -0.011173344162795458 0.01679445929135529
0.21077751544660883 -0.024852576589921273 0.027699883089184647
0.23622871331691908 0.007252266256541966 -0.019775143623101826
0.23680175442155013 0.0010300489761547159 -0.004253693035708235
0.23670972895539055 0.00012678442346633918 -0.0016901146978866048
0.23603422004848143 -0.0001993840311302673 -0.000539180319148942
0.23567632313729742 -0.0003233703807997242 0.000619334993055781
0.2358201214555574 -0.00041306717720529935 0.0018215109506107756
0.23639422208375693 -0.0006040399057685292 0.0031833147166131265
0.23716173823866166 -0.0010328441678405472 0.004880350706311562
0.23748744684675993 -0.0020649745143239986 0.007379491058472855
0.23591465834118525 -0.0043152340719341846 0.011622710968418933
0.23065580265177626 -0.009803740099980333 0.02324914023497846
0.25 0.0 0.0
0.25 0.0 0.0
0.25 0.0 0.0
0.25 0.0 0.0
0.25 0.0 0.0
0.25 0.0 0.0
0.25 0.0 0.0
0.25 0.0 0.0
0.25 0.0 0.0
0.25 0.0 0.0
0.25 0.0 0.0
0.0 0.0 0.0
0.0 0.0 0.0
0.0 0.0 0.0
0.0 0.0 0.0
0.0 0.0 0.0
0.0 0.0 0.0
0.0 0.0 0.0
0.0 0.0 0.0
0.0 0.0 0.0
0.0 0.0 0.0
0.0 0.0 0.0
0.02388563522951999 0.008444647342448312 0.01480268875499472
0.01829148783619569 0.003014649303555385 0.008091422960506842
0.01601738474652124 0.0014274393031370267 0.005018116078618789
0.01538935366893186 0.0006019633941497084 0.0031675557625993112
0.01547950717653532 0.00028109779511587143 0.0020014125959556092
0.01569671642897667 0.00013813551682772241 0.0011239396357736941
0.015812874056327104 5.338201342280327e-05 0.00038973427239028565
0.015836980854230177 -6.931186366041951e-05 -0.0002965042445912008
0.016082949953457087 -0.000400720585891986 -0.0011337744870613467
0.017420639250477505 -0.0014735129352430466 -0.0035182468270220746
0.02075970287554626 -0.008440512407665525 -0.011911746969652592
0.046661867238274306 0.02350598056751871 0.018975348881913344
0.03943039443843522 0.010323949072369606 0.012293265485938832
0.03603602219381925 0.004476472288414034 0.007331802970700829
0.03516395197539215 0.001932006034890787 0.004707430996020456
0.035304901326413236 0.0008559946821454368 0.0029716115256202907
0.03567078478013125 0.00037596032748928184 0.0017102469784613964
0.03599120356854643 2.916757892155891e-05 0.0006815742180362322
0.03633932985659203 -0.0005452147869665149 -0.0003289183974723712
0.03715873522328165 -0.0018392725804067945 -0.0016826270376763604
0.03913599548025333 -0.0061301770887566345 -0.005369290243398622
0.041295138775102144 -0.021607900605328398 -0.01243895720818882
0.07230485144706797 0.03559970976526794 0.017106367834086065
0.06554855392161224 0.01677899462450302 0.011800581066353484
0.06235383606946859 0.007127953673219142 0.007587028950694126
0.06158661379413006 0.0030249582330737343 0.00497771229080245
0.06177477557576515 0.0012521338354768924 0.0032637611695831214
0.06225733630090545 0.00040331801547727566 0.0020670350760872295
0.06280523823432754 -0.00031583624942435715 0.0011423133716182941
0.0634729483643224 -0.0015397800090933603 0.00023073172228772418
0.06451434407856835 -0.004254457354380276 -0.0011628015600960188
0.06585713560379702 -0.011757006399053766 -0.0036467786989722263
0.0654346390712327 -0.0327650320422876 -0.007828516730104944
0.10046424016973682 0.04206062061128147 0.011487503872537448
0.0948775359299201 0.01979481964850645 0.008365827781242893
0.09255994339112689 0.008426040037724045 0.005872917377493582
0.09206907568599093 0.0035572641760942404 0.0041353821199529815
0.09225843516607099 0.0013720408683318384 0.002938371049327766
0.09271613255741362 0.0002381896041155521 0.0021848387852159232
0.09324957363901508 -0.0008238480882026084 0.001695712848936028
0.09382194293196482 -0.002673622401775074 0.0012795171036382494
0.09443487581598708 -0.006676036550136292 0.0006800817955814162
0.09457978296063571 -0.016407709084327034 -0.00023666615820782766
0.0919192554341548 -0.03987849251874862 -0.0018580704160708144
0.12991304326359093 0.04304562862880301 0.004331959353679392
0.1256613233230908 0.01930498620124256 0.0037824050456786314
0.12447849021357957 0.008198391017717438 0.0031662223280312825
0.12438372835776965 0.0034281498286017446 0.002626435845022939
0.12462304292993719 0.0012198533370279831 0.0022528590852754537
0.12499999999999992 -1.7336734267382077e-17 0.002128998368436287
0.12537695707006266 -0.001219853337027964 0.0022528590852754935
0.12561627164223022 -0.003428149828601711 0.002626435845023027
0.12552150978642024 -0.008198391017717433 0.00316622232803137
0.12433867667690902 -0.019304986201242574 0.0037824050456787177
0.12008695673640893 -0.043045628628803 0.004331959353679511
0.1580807445658452 0.03987849251874857 -0.001858070416070947
0.1554202170393643 0.016407709084327034 -0.00023666615820794697
0.15556512418401286 0.006676036550136298 0.0006800817955812846
0.15617805706803511 0.0026736224017751067 0.0012795171036381354
0.15675042636098482 0.0008238480882026151 0.00169571284893597
0.15728386744258627 -0.00023818960411555904 0.0021848387852159
0.15774156483392887 -0.0013720408683318298 0.0029383710493278157
0.15793092431400893 -0.0035572641760942053 0.004135382119953052
0.15744005660887295 -0.008426040037724025 0.005872917377493667
0.15512246407007974 -0.019794819648506445 0.008365827781242962
0.14953575983026302 -0.04206062061128145 0.011487503872537535
0.18456536092876727 0.032765032042287555 -0.007828516730105057
0.18414286439620298 0.0117570063990538 -0.003646778698972309
0.18548565592143162 0.004254457354380296 -0.001162801560096097
0.1865270516356775 0.0015397800090934195 0.00023073172228761662
0.18719476176567235 0.0003158362494243379 0.0011423133716182156
0.18774266369909443 -0.00040331801547725387 0.0020670350760872143
0.18822522442423473 -0.0012521338354768885 0.003263761169583135
0.18841338620586984 -0.00302495823307368 0.004977712290802485
0.18764616393053127 -0.007127953673219096 0.00758702895069419
0.18445144607838765 -0.016778994624503007 0.011800581066353543
0.17769514855293192 -0.03559970976526797 0.017106367834086134
0.20870486122489776 0.021607900605328356 -0.0124389572081889
0.2108640045197466 0.006130177088756693 -0.005369290243398682
0.21284126477671828 0.0018392725804068277 -0.0016826270376764467
0.2136606701434079 0.0005452147869665485 -0.00032891839747241586
0.21400879643145349 -2.9167578921588254e-05 0.000681574218036201
0.21432921521986867 -0.00037596032748926726 0.001710246978461402
0.2146950986735867 -0.0008559946821454391 0.00297161152562031
0.21483604802460787 -0.001932006034890761 0.004707430996020485
0.2139639778061808 -0.004476472288414003 0.007331802970700851
0.21056960556156482 -0.010323949072369606 0.012293265485938887
0.2033381327617257 -0.023505980567518778 0.01897534888191339
0.22924029712445354 0.008440512407665489 -0.011911746969652593
0.23257936074952232 0.0014735129352430854 -0.003518246827022138
0.23391705004654278 0.00040072058589200345 -0.0011337744870614066
0.23416301914576973 6.931186366045552e-05 -0.00029650424459123
0.2341871259436728 -5.33820134228147e-05 0.00038973427239025096
0.23430328357102326 -0.00013813551682772084 0.0011239396357736616
0.2345204928234646 -0.0002810977951158732 0.002001412595955596
0.234610646331068 -0.0006019633941497105 0.003167555762599319
0.23398261525347866 -0.0014274393031369953 0.005018116078618828
0.23170851216380423 -0.0030146493035553674 0.008091422960506897
0.22611436477047991 -0.008444647342448344 0.0148026887549948
0.25 0.0 0.0
0.25 0.0 0.0
0.25 0.0 0.0
0.25 0.0 0.0
0.25 0.0 0.0
0.25 0.0 0.0
0.25 0.0 0.0
0.25 0.0 0.0
0.25 0.0 0.0
0.25 0.0 0.0
0.25 0.0 0.0
0.0 0.0 0.0
0.0 0.0 0.0
0.0 0.0 0.0
0.0 0.0 0.0
0.0 0.0 0.0
0.0 0.0 0.0
0.0 0.0 0.0
0.0 0.0 0.0
0.0 0.0 0.0
0.0 0.0 0.0
0.0 0.0 0.0
0.027100938306399112 0.008825327271991918 0.008936748500895547
0.019945862968393773 0.0031831058863589323 0.00555977700744037
0.017262004315577263 0.0015533011833207603 0.0036163434313600316
0.0163356821086787 0.000623622234540488 0.002248008104136125
0.016206654068175366 0.0002554042675113692 0.0013744801079313435
0.01631605447875869 0.00010140846007992304 0.0007601597049254976
0.01644207202776814 1.0267839220952847e-05 0.0002695334043246251
0.01661256140945755 -0.00011862219736064094 -0.0002017079262020102
0.017117659264528372 -0.0005848038693460822 -0.0009636758828122484
0.018827484306000557 -0.0019800859974342068 -0.0026267588471147016
0.024111438753240018 -0.009133918750110727 -0.006585951182577882
0.049825030373707134 0.023343165642151283 0.012246356449544048
0.04192670307461581 0.010540788763711595 0.00853632340907532
0.038133558362615394 0.004567531924775779 0.005359944756915729
0.03687321543295187 0.0018866177809830607 0.003390500367417547
0.03669183186727196 0.0007393543064965962 0.002102354760987208
0.03689417835276093 0.0002352634503938001 0.0012050256694482802
0.03723562331757386 -0.00013788812361295713 0.0004911003130618017
0.03779659098818398 -0.0007543447583055684 -0.00025136016977791835
0.03890530081845772 -0.0022733652977729502 -0.0014018523412484812
0.041086541870843166 -0.007434344149293975 -0.003944692532633966
0.04453218747502196 -0.02207415544135974 -0.007508607354442448
0.07514315805471027 0.034921542561728025 0.011450355750593114
0.06801398226172431 0.017130582007507143 0.008375264057962514
0.06436161717948004 0.007472273875014529 0.0055637183416936565
0.06310629729379894 0.003111246396291823 0.0036270857892887268
0.06296427309760294 0.001199050782267673 0.002365610308367325
0.06326940404096784 0.00025478956217091816 0.0014988361813266407
0.06379412572258811 -0.0005649705418576907 0.0008315922284725185
0.06458365780103517 -0.001920244159479822 0.00013229339096515642
0.06581849920982774 -0.004975491480742541 -0.0009533598355755826
0.06719008216692685 -0.013465744716648112 -0.0027087536605660185
0.0678576444263781 -0.03292146892032949 -0.0049650864951938135
0.10241231993935823 0.04155077363684928 0.007835920617901818
0.09670597080854912 0.020709597329023315 0.006041940365390125
0.09394099035177361 0.009110944221216371 0.004302298035285079
0.09306365347513162 0.0038502320690998256 0.0030359219118709473
0.0930052766696899 0.0014417254687706907 0.0021743158385482673
0.0933076866745408 0.00014002785807248715 0.0016245318675256006
0.09377100975378262 -0.001091586608694146 0.0012622088077649195
0.09433799566649484 -0.003162926125979947 0.0009246582689650542
0.09494517206434322 -0.007578071600677834 0.0004617749646373048
0.09494639442772368 -0.01826439426323237 -0.0001823558499641114
0.093076124500644 -0.040026749997637036 -0.0011269996320660259
0.13037232366708412 0.04299088896103437 0.0029192848162993877
0.12643359228880596 0.02087051464931313 0.0027321314272429013
0.12491783276634474 0.009091961683552396 0.0023275136495919204
0.1246271442322235 0.0038797167630444467 0.001957428841336633
0.12473872426710238 0.0014172925733144236 0.0017100822032452652
0.12499999999999996 1.5767979096295e-18 0.0016231078285457881
0.12526127573289753 -0.00141729257331442 0.0017100822032452933
0.12537285576777646 -0.0038797167630444346 0.0019574288413367214
0.1250821672336552 -0.009091961683552377 0.0023275136495920132
0.12356640771119397 -0.020870514649313148 0.0027321314272429923
0.11962767633291581 -0.04299088896103444 0.0029192848162994957
0.156923875499356 0.04002674999763697 -0.0011269996320661323
0.15505360557227627 0.01826439426323236 -0.00018235584996419515
0.1550548279356567 0.007578071600677853 0.00046177496463722933
0.155662004333505 0.0031629261259799838 0.0009246582689649496
0.1562289902462172 0.0010915866086941414 0.0012622088077648645
0.15669231332545897 -0.00014002785807248297 0.0016245318675256071
0.15699472333030987 -0.0014417254687706833 0.002174315838548328
0.15693634652486815 -0.0038502320690998047 0.0030359219118710193
0.1560590096482262 -0.009110944221216352 0.004302298035285131
0.15329402919145066 -0.0207095973290233 0.006041940365390195
0.14758768006064157 -0.04155077363684928 0.007835920617901889
0.18214235557362185 0.03292146892032942 -0.004965086495193928
0.1828099178330731 0.013465744716648095 -0.0027087536605660883
0.18418150079017226 0.004975491480742551 -0.0009533598355756436
0.18541634219896483 0.0019202441594798508 0.0001322933909650988
0.1862058742774118 0.0005649705418577457 0.0008315922284724843
0.18673059595903208 -0.0002547895621709073 0.001498836181326616
0.18703572690239698 -0.0011990507822676713 0.0023656103083673297
0.18689370270620098 -0.0031112463962917926 0.003627085789288753
0.18563838282051986 -0.007472273875014483 0.00556371834169372
0.1819860177382756 -0.017130582007507132 0.008375264057962567
0.17485684194528964 -0.03492154256172802 0.011450355750593161
0.20546781252497792 0.022074155441359704 -0.007508607354442504
0.20891345812915668 0.0074343441492939885 -0.003944692532634036
0.2110946991815421 0.002273365297772942 -0.0014018523412485482
0.21220340901181586 0.0007543447583055892 -0.00025136016977795423
0.212764376682426 0.00013788812361298965 0.0004911003130617738
0.21310582164723896 -0.00023526345039378999 0.0012050256694482715
0.21330816813272796 -0.0007393543064965848 0.00210235476098718
0.2131267845670481 -0.0018866177809830427 0.00339050036741756
0.21186644163738458 -0.0045675319247757435 0.005359944756915766
0.20807329692538415 -0.010540788763711608 0.008536323409075355
0.20017496962629283 -0.023343165642151338 0.012246356449544134
0.22588856124675985 0.009133918750110711 -0.006585951182577915
0.23117251569399935 0.0019800859974342094 -0.0026267588471147554
0.23288234073547154 0.0005848038693460819 -0.000963675882812326
0.23338743859054234 0.00011862219736064405 -0.00020170792620204824
0.2335579279722318 -1.0267839220949844e-05 0.00026953340432456815
0.23368394552124125 -0.00010140846007991223 0.0007601597049254872
0.23379334593182452 -0.0002554042675113803 0.0013744801079313526
0.23366431789132117 -0.0006236222345404783 0.0022480081041361642
0.2327379956844226 -0.0015533011833207475 0.0036163434313600923
0.2300541370316061 -0.00318310588635893 0.005559777007440397
0.22289906169360077 -0.00882532727199194 0.008936748500895564
0.25 0.0 0.0
0.25 0.0 0.0
0.25 0.0 0.0
0.25 0.0 0.0
0.25 0.0 0.0
0.25 0.0 0.0
0.25 0.0 0.0
0.25 0.0 0.0
0.25 0.0 0.0
0.25 0.0 0.0
0.25 0.0 0.0
0.0 0.0 0.0
0.0 0.0 0.0
0.0 0.0 0.0
0.0 0.0 0.0
0.0 0.0 0.0
0.0 0.0 0.0
0.0 0.0 0.0
0.0 0.0 0.0
0.0 0.0 0.0
0.0 0.0 0.0
0.0 0.0 0.0
0.02861846112840931 0.008805662528726364 0.005026477827229466
0.02059099364676344 0.003111062732719283 0.0034550951379316345