# vtk DataFile Version 3.0
Some data
ASCII
DATASET UNSTRUCTURED_GRID
POINTS 1331 float
0.0 0.0 0.0
0.1 0.0 0.0
0.2 0.0 0.0
0.30000000000000004 0.0 0.0
0.4 0.0 0.0
0.5 0.0 0.0
0.6000000000000001 0.0 0.0
0.7000000000000001 0.0 0.0
0.8 0.0 0.0
0.9 0.0 0.0
1.0 0.0 0.0
0.0 0.1 0.0
0.1 0.1 0.0
0.2 0.1 0.0
0.30000000000000004 0.1 0.0
0.4 0.1 0.0
0.5 0.1 0.0
0.6000000000000001 0.1 0.0
0.7000000000000001 0.1 0.0
0.8 0.1 0.0
0.9 0.1 0.0
1.0 0.1 0.0
0.0 0.2 0.0
0.1 0.2 0.0
0.2 0.2 0.0
0.30000000000000004 0.2 0.0
0.4 0.2 0.0
0.5 0.2 0.0
0.6000000000000001 0.2 0.0
0.7000000000000001 0.2 0.0
0.8 0.2 0.0
0.9 0.2 0.0
1.0 0.2 0.0
0.0 0.30000000000000004 0.0
0.1 0.30000000000000004 0.0
0.2 0.30000000000000004 0.0
0.30000000000000004 0.30000000000000004 0.0
0.4 0.30000000000000004 0.0
0.5 0.30000000000000004 0.0
0.6000000000000001 0.30000000000000004 0.0
0.7000000000000001 0.30000000000000004 0.0
0.8 0.30000000000000004 0.0
0.9 0.30000000000000004 0.0
1.0 0.30000000000000004 0.0
0.0 0.4 0.0
0.1 0.4 0.0
0.2 0.4 0.0
0.30000000000000004 0.4 0.0
0.4 0.4 0.0
0.5 0.4 0.0
0.6000000000000001 0.4 0.0
0.7000000000000001 0.4 0.0
0.8 0.4 0.0
0.9 0.4 0.0
1.0 0.4 0.0
0.0 0.5 0.0
0.1 0.5 0.0
0.2 0.5 0.0
0.30000000000000004 0.5 0.0
0.4 0.5 0.0
0.5 0.5 0.0
0.6000000000000001 0.5 0.0
0.7000000000000001 0.5 0.0
0.8 0.5 0.0
0.9 0.5 0.0
1.0 0.5 0.0
0.0 0.6000000000000001 0.0
0.1 0.6000000000000001 0.0
0.2 0.6000000000000001 0.0
0.30000000000000004 0.6000000000000001 0.0
0.4 0.6000000000000001 0.0
0.5 0.6000000000000001 0.0
0.6000000000000001 0.6000000000000001 0.0
0.7000000000000001 0.6000000000000001 0.0
0.8 0.6000000000000001 0.0
0.9 0.6000000000000001 0.0
1.0 0.6000000000000001 0.0
0.0 0.7000000000000001 0.0
0.1 0.7000000000000001 0.0
0.2 0.7000000000000001 0.0
0.30000000000000004 0.7000000000000001 0.0
0.4 0.7000000000000001 0.0
0.5 0.7000000000000001 0.0
0.6000000000000001 0.7000000000000001 0.0
0.7000000000000001 0.7000000000000001 0.0
0.8 0.7000000000000001 0.0
0.9 0.7000000000000001 0.0
1.0 0.7000000000000001 0.0
0.0 0.8 0.0
0.1 0.8 0.0
0.2 0.8 0.0
0.30000000000000004 0.8 0.0
0.4 0.8 0.0
0.5 0.8 0.0
0.6000000000000001 0.8 0.0
0.7000000000000001 0.8 0.0
0.8 0.8 0.0
0.9 0.8 0.0
1.0 0.8 0.0
0.0 0.9 0.0
0.1 0.9 0.0
0.2 0.9 0.0
0.30000000000000004 0.9 0.0
0.4 0.9 0.0
0.5 0.9 0.0
0.6000000000000001 0.9 0.0
0.7000000000000001 0.9 0.0
0.8 0.9 0.0
0.9 0.9 0.0
1.0 0.9 0.0
0.0 1.0 0.0
0.1 1.0 0.0
0.2 1.0 0.0
0.30000000000000004 1.0 0.0
0.4 1.0 0.0
0.5 1.0 0.0
0.6000000000000001 1.0 0.0
0.7000000000000001 1.0 0.0
0.8 1.0 0.0
0.9 1.0 0.0
1.0 1.0 0.0
0.0 0.0 0.1
0.1 0.0 0.1
0.2 0.0 0.1
0.30000000000000004 0.0 0.1
0.4 0.0 0.1
0.5 0.0 0.1
0.6000000000000001 0.0 0.1
0.7000000000000001 0.0 0.1
0.8 0.0 0.1
0.9 0.0 0.1
1.0 0.0 0.1
0.0 0.1 0.1
0.1 0.1 0.1
0.2 0.1 0.1
0.30000000000000004 0.1 0.1
0.4 0.1 0.1
0.5 0.1 0.1
0.6000000000000001 0.1 0.1
0.7000000000000001 0.1 0.1
0.8 0.1 0.1
0.9 0.1 0.1
1.0 0.1 0.1
0.0 0.2 0.1
0.1 0.2 0.1
0.2 0.2 0.1
0.30000000000000004 0.2 0.1
0.4 0.2 0.1
0.5 0.2 0.1
0.6000000000000001 0.2 0.1
0.7000000000000001 0.2 0.1
0.8 0.2 0.1
0.9 0.2 0.1
1.0 0.2 0.1
0.0 0.30000000000000004 0.1
0.1 0.30000000000000004 0.1
0.2 0.30000000000000004 0.1
0.30000000000000004 0.30000000000000004 0.1
0.4 0.30000000000000004 0.1
0.5 0.30000000000000004 0.1
0.6000000000000001 0.30000000000000004 0.1
0.7000000000000001 0.30000000000000004 0.1
0.8 0.30000000000000004 0.1
0.9 0.30000000000000004 0.1
1.0 0.30000000000000004 0.1
0.0 0.4 0.1
0.1 0.4 0.1
0.2 0.4 0.1
0.30000000000000004 0.4 0.1
0.4 0.4 0.1
0.5 0.4 0.1
0.6000000000000001 0.4 0.1
0.7000000000000001 0.4 0.1
0.8 0.4 0.1
0.9 0.4 0.1
1.0 0.4 0.1
0.0 0.5 0.1
0.1 0.5 0.1
0.2 0.5 0.1
0.30000000000000004 0.5 0.1
0.4 0.5 0.1
0.5 0.5 0.1
0.6000000000000001 0.5 0.1
0.7000000000000001 0.5 0.1
0.8 0.5 0.1
0.9 0.5 0.1
1.0 0.5 0.1
0.0 0.6000000000000001 0.1
0.1 0.6000000000000001 0.1
0.2 0.6000000000000001 0.1
0.30000000000000004 0.6000000000000001 0.1
0.4 0.6000000000000001 0.1
0.5 0.6000000000000001 0.1
0.6000000000000001 0.6000000000000001 0.1
0.7000000000000001 0.6000000000000001 0.1
0.8 0.6000000000000001 0.1
0.9 0.6000000000000001 0.1
1.0 0.6000000000000001 0.1
0.0 0.7000000000000001 0.1
0.1 0.7000000000000001 0.1
0.2 0.7000000000000001 0.1
0.30000000000000004 0.7000000000000001 0.1
0.4 0.7000000000000001 0.1
0.5 0.7000000000000001 0.1
0.6000000000000001 0.7000000000000001 0.1
0.7000000000000001 0.7000000000000001 0.1
0.8 0.7000000000000001 0.1
0.9 0.7000000000000001 0.1
1.0 0.7000000000000001 0.1
0.0 0.8 0.1
0.1 0.8 0.1
0.2 0.8 0.1
0.30000000000000004 0.8 0.1
0.4 0.8 0.1
0.5 0.8 0.1
0.6000000000000001 0.8 0.1
0.7000000000000001 0.8 0.1
0.8 0.8 0.1
0.9 0.8 0.1
1.0 0.8 0.1
0.0 0.9 0.1
0.1 0.9 0.1
0.2 0.9 0.1
0.30000000000000004 0.9 0.1
0.4 0.9 0.1
0.5 0.9 0.1
0.6000000000000001 0.9 0.1
0.7000000000000001 0.9 0.1
0.8 0.9 0.1
0.9 0.9 0.1
1.0 0.9 0.1
0.0 1.0 0.1
0.1 1.0 0.1
0.2 1.0 0.1
0.30000000000000004 1.0 0.1
0.4 1.0 0.1
0.5 1.0 0.1
0.6000000000000001 1.0 0.1
0.7000000000000001 1.0 0.1
0.8 1.0 0.1
0.9 1.0 0.1
1.0 1.0 0.1
0.0 0.0 0.2
0.1 0.0 0.2
0.2 0.0 0.2
0.30000000000000004 0.0 0.2
0.4 0.0 0.2
0.5 0.0 0.2
0.6000000000000001 0.0 0.2
0.7000000000000001 0.0 0.2
0.8 0.0 0.2
0.9 0.0 0.2
1.0 0.0 0.2
0.0 0.1 0.2
0.1 0.1 0.2
0.2 0.1 0.2
0.30000000000000004 0.1 0.2
0.4 0.1 0.2
0.5 0.1 0.2
0.6000000000000001 0.1 0.2
0.7000000000000001 0.1 0.2
0.8 0.1 0.2
0.9 0.1 0.2
1.0 0.1 0.2
0.0 0.2 0.2
0.1 0.2 0.2
0.2 0.2 0.2
0.30000000000000004 0.2 0.2
0.4 0.2 0.2
0.5 0.2 0.2
0.6000000000000001 0.2 0.2
0.7000000000000001 0.2 0.2
0.8 0.2 0.2
0.9 0.2 0.2
1.0 0.2 0.2
0.0 0.30000000000000004 0.2
0.1 0.30000000000000004 0.2
0.2 0.30000000000000004 0.2
0.30000000000000004 0.30000000000000004 0.2
0.4 0.30000000000000004 0.2
0.5 0.30000000000000004 0.2
0.6000000000000001 0.30000000000000004 0.2
0.7000000000000001 0.30000000000000004 0.2
0.8 0.30000000000000004 0.2
0.9 0.30000000000000004 0.2
1.0 0.30000000000000004 0.2
0.0 0.4 0.2
0.1 0.4 0.2
0.2 0.4 0.2
0.30000000000000004 0.4 0.2
0.4 0.4 0.2
0.5 0.4 0.2
0.6000000000000001 0.4 0.2
0.7000000000000001 0.4 0.2
0.8 0.4 0.2
0.9 0.4 0.2
1.0 0.4 0.2
0.0 0.5 0.2
0.1 0.5 0.2
0.2 0.5 0.2
0.30000000000000004 0.5 0.2
0.4 0.5 0.2
0.5 0.5 0.2
0.6000000000000001 0.5 0.2
0.7000000000000001 0.5 0.2
0.8 0.5 0.2
0.9 0.5 0.2
1.0 0.5 0.2
0.0 0.6000000000000001 0.2
0.1 0.6000000000000001 0.2
0.2 0.6000000000000001 0.2
0.30000000000000004 0.6000000000000001 0.2
0.4 0.6000000000000001 0.2
0.5 0.6000000000000001 0.2
0.6000000000000001 0.6000000000000001 0.2
0.7000000000000001 0.6000000000000001 0.2
0.8 0.6000000000000001 0.2
0.9 0.6000000000000001 0.2
1.0 0.6000000000000001 0.2
0.0 0.7000000000000001 0.2
0.1 0.7000000000000001 0.2
0.2 0.7000000000000001 0.2
0.30000000000000004 0.7000000000000001 0.2
0.4 0.7000000000000001 0.2
0.5 0.7000000000000001 0.2
0.6000000000000001 0.7000000000000001 0.2
0.7000000000000001 0.7000000000000001 0.2
0.8 0.7000000000000001 0.2
0.9 0.7000000000000001 0.2
1.0 0.7000000000000001 0.2
0.0 0.8 0.2
0.1 0.8 0.2
0.2 0.8 0.2
0.30000000000000004 0.8 0.2
0.4 0.8 0.2
0.5 0.8 0.2
0.6000000000000001 0.8 0.2
0.7000000000000001 0.8 0.2
0.8 0.8 0.2
0.9 0.8 0.2
1.0 0.8 0.2
0.0 0.9 0.2
0.1 0.9 0.2
0.2 0.9 0.2
0.30000000000000004 0.9 0.2
0.4 0.9 0.2
0.5 0.9 0.2
0.6000000000000001 0.9 0.2
0.7000000000000001 0.9 0.2
0.8 0.9 0.2
0.9 0.9 0.2
1.0 0.9 0.2
0.0 1.0 0.2
0.1 1.0 0.2
0.2 1.0 0.2
0.30000000000000004 1.0 0.2
0.4 1.0 0.2
0.5 1.0 0.2
0.6000000000000001 1.0 0.2
0.7000000000000001 1.0 0.2
0.8 1.0 0.2
0.9 1.0 0.2
1.0 1.0 0.2
0.0 0.0 0.30000000000000004
0.1 0.0 0.30000000000000004
0.2 0.0 0.30000000000000004
0.30000000000000004 0.0 0.30000000000000004
0.4 0.0 0.30000000000000004
0.5 0.0 0.30000000000000004
0.6000000000000001 0.0 0.30000000000000004
0.7000000000000001 0.0 0.30000000000000004
0.8 0.0 0.30000000000000004
0.9 0.0 0.30000000000000004
1.0 0.0 0.30000000000000004
0.0 0.1 0.30000000000000004
0.1 0.1 0.30000000000000004
0.2 0.1 0.30000000000000004
0.30000000000000004 0.1 0.30000000000000004
0.4 0.1 0.30000000000000004
0.5 0.1 0.30000000000000004
0.6000000000000001 0.1 0.30000000000000004
0.7000000000000001 0.1 0.30000000000000004
0.8 0.1 0.30000000000000004
0.9 0.1 0.30000000000000004
1.0 0.1 0.30000000000000004
0.0 0.2 0.30000000000000004
0.1 0.2 0.30000000000000004
0.2 0.2 0.30000000000000004
0.30000000000000004 0.2 0.30000000000000004
0.4 0.2 0.30000000000000004
0.5 0.2 0.30000000000000004
0.6000000000000001 0.2 0.30000000000000004
0.7000000000000001 0.2 0.30000000000000004
0.8 0.2 0.30000000000000004
0.9 0.2 0.30000000000000004
1.0 0.2 0.30000000000000004
0.0 0.30000000000000004 0.30000000000000004
0.1 0.30000000000000004 0.30000000000000004
0.2 0.30000000000000004 0.30000000000000004
0.30000000000000004 0.30000000000000004 0.30000000000000004
0.4 0.30000000000000004 0.30000000000000004
0.5 0.30000000000000004 0.30000000000000004
0.6000000000000001 0.30000000000000004 0.30000000000000004
0.7000000000000001 0.30000000000000004 0.30000000000000004
0.8 0.30000000000000004 0.30000000000000004
0.9 0.30000000000000004 0.30000000000000004
1.0 0.30000000000000004 0.30000000000000004
0.0 0.4 0.30000000000000004
0.1 0.4 0.30000000000000004
0.2 0.4 0.30000000000000004
0.30000000000000004 0.4 0.30000000000000004
0.4 0.4 0.30000000000000004
0.5 0.4 0.30000000000000004
0.6000000000000001 0.4 0.30000000000000004
0.7000000000000001 0.4 0.30000000000000004
0.8 0.4 0.30000000000000004
0.9 0.4 0.30000000000000004
1.0 0.4 0.30000000000000004
0.0 0.5 0.30000000000000004
0.1 0.5 0.30000000000000004
0.2 0.5 0.30000000000000004
0.30000000000000004 0.5 0.30000000000000004
0.4 0.5 0.30000000000000004
0.5 0.5 0.30000000000000004
0.6000000000000001 0.5 0.30000000000000004
0.7000000000000001 0.5 0.30000000000000004
0.8 0.5 0.30000000000000004
0.9 0.5 0.30000000000000004
1.0 0.5 0.30000000000000004
0.0 0.6000000000000001 0.30000000000000004
0.1 0.6000000000000001 0.30000000000000004
0.2 0.6000000000000001 0.30000000000000004
0.30000000000000004 0.6000000000000001 0.30000000000000004
[...]
POINT_DATA 1331
VECTORS Disp float
0.0 0.0 0.0
0.0 0.0 0.0
0.0 0.0 0.0
0.0 0.0 0.0
0.0 0.0 0.0
0.0 0.0 0.0
0.0 0.0 0.0
0.0 0.0 0.0
0.0 0.0 0.0
0.0 0.0 0.0
0.0 0.0 0.0
0.03883393933901392 0.012906831571864247 0.04261462532649276
0.03095494068312291 0.005832143812323644 0.020322164083975185
0.02855689980321839 0.0032415320206996357 0.013419885702549834
0.028917417872149867 0.001911641127272269 0.009826456599975724
0.030326858185133965 0.001313129303484293 0.007410652857563071
0.031612790235447996 0.0010503766316302232 0.0054609003904045154
0.03223771326847092 0.0009147489725218306 0.003813868334070917
0.03212546601633831 0.0007707300198981017 0.0024469060800028568
0.031620493657743706 0.0002892698724094052 0.001135755545627048
0.031463222279513425 0.00025292062320814043 -0.0027655211658836583
0.027206628363232014 -0.00624378067360884 -0.03448472039015528
0.07870393678401727 0.035905307584015445 0.05198474227922337
0.06800624319010407 0.015948643177522242 0.03143015901521529
0.06501793650920157 0.007974954448213153 0.019274512425076065
0.06568799990189476 0.00425749551063258 0.013781880514401929
0.06751318733542727 0.0026403963539924392 0.01026777237114864
0.06922047823481711 0.00197081300738876 0.007780948376250347
0.07026306273620732 0.0016697166317592052 0.0058815363914784145
0.07051688819904246 0.0012449149048733765 0.0042173651606098265
0.07026613140342505 6.653044534192417e-05 0.0021646494578241118
0.07012542037706254 -0.0021037120797960597 -0.006409714310244247
0.062336023466049224 -0.01983795930947765 -0.0329566551322768
0.12487839479053182 0.052782301787397776 0.046539835529056536
0.1131368834838671 0.023533085349731555 0.03123239845861533
0.1100795871739664 0.010823811762591494 0.020463995158250283
0.11091611067498681 0.005328961827000173 0.014728339334824002
0.11297467651546923 0.0029642019177298783 0.011318750293019533
0.11510007793703084 0.001998674359333312 0.009140998611393988
0.11683841388032766 0.0014886547525926929 0.007661033162502832
0.11811652439472176 0.0005830970489507814 0.006404462650359989
0.11919158633455487 -0.0017700709476733375 0.004042437293805838
0.1199779797006833 -0.00798593435804263 -0.0024109838560055015
0.11056604670631584 -0.03538739645222034 -0.018380376585053235
0.176963117949478 0.05962454516278435 0.03342945649604167
0.16482323598132131 0.0254627637241196 0.024084785251063535
0.16252554982150383 0.010961462890089608 0.017663738970660876
0.1636952540525356 0.004847538869502411 0.013508842317366961
0.16587716366596517 0.002278393717224446 0.011024515343562287
0.16819508213217532 0.0012219022503583638 0.009632617929193328
0.17032792119658335 0.0004676926584279307 0.008938954324356197
0.17221602596268182 -0.0011060921725638889 0.00852858960775382
0.173830316408729 -0.0051660846057380964 0.0076357457986771194
0.1742426355100643 -0.01539173758129324 0.005008405770182834
0.16362949979841238 -0.048863633233753166 -0.0005774701400307781
0.23189147152531195 0.05749336734735216 0.016578675183050253
0.22020126368400034 0.021975282017909967 0.014093428912647121
0.21925187750461556 0.008703444881411837 0.012481966927296789
0.22068195034950974 0.0031817442795921314 0.010863402642075646
0.222756889459029 0.0009573259779020293 0.009882511989836001
0.22499999999999992 -2.2586657520961062e-17 0.009550499664203831
0.22724311054097102 -0.0009573259779019919 0.009882511989836121
0.2293180496504904 -0.0031817442795921236 0.010863402642075809
0.23074812249538473 -0.008703444881411768 0.012481966927296839
0.22979873631599995 -0.02197528201791 0.014093428912647237
0.21810852847468837 -0.05749336734735225 0.016578675183050444
0.28637050020158805 0.04886363323375302 -0.0005774701400309962
0.2757573644899362 0.01539173758129321 0.005008405770182662
0.2761696835912715 0.005166084605738161 0.007635745798676958
0.27778397403731864 0.0011060921725639787 0.008528589607753712
0.27967207880341705 -0.00046769265842790266 0.008938954324356116
0.281804917867825 -0.001221902250358429 0.009632617929193312
0.2841228363340352 -0.0022783937172244756 0.011024515343562254
0.28630474594746474 -0.004847538869502466 0.013508842317366945
0.2874744501784965 -0.01096146289008967 0.017663738970660932
0.28517676401867903 -0.02546276372411958 0.024084785251063664
0.2730368820505222 -0.059624545162784356 0.03342945649604172
0.33943395329368475 0.03538739645222017 -0.018380376585053426
0.3300220202993173 0.007985934358042577 -0.0024109838560055843
0.3308084136654457 0.0017700709476734307 0.004042437293805741
0.3318834756052788 -0.0005830970489507006 0.00640446265035978
0.33316158611967284 -0.0014886547525926634 0.007661033162502719
0.3348999220629696 -0.0019986743593333445 0.009140998611393964
0.3370253234845311 -0.0029642019177299342 0.01131875029301951
0.33908388932501354 -0.00532896182700025 0.014728339334823983
0.33992041282603397 -0.010823811762591555 0.020463995158250294
0.3368631165161333 -0.02353308534973146 0.031232398458615404
0.32512160520946853 -0.0527823017873977 0.046539835529056536
0.387663976533951 0.01983795930947758 -0.03295665513227682
0.37987457962293775 0.0021037120797960836 -0.0064097143102443245
0.37973386859657526 -6.653044534183798e-05 0.002164649457824076
0.37948311180095784 -0.0012449149048733646 0.0042173651606098005
0.3797369372637931 -0.0016697166317591846 0.0058815363914784275
0.38077952176518337 -0.0019708130073887884 0.00778094837625034
0.3824868126645732 -0.0026403963539925065 0.010267772371148636
0.3843120000981056 -0.004257495510632595 0.01378188051440191
0.38498206349079883 -0.007974954448213218 0.01927451242507607
0.38199375680989645 -0.015948643177522186 0.03143015901521528
0.3712960632159832 -0.03590530758401546 0.051984742279223395
0.4227933716367681 0.006243780673608784 -0.034484720390155064
0.41853677772048675 -0.0002529206232081038 -0.002765521165883728
0.4183795063422565 -0.0002892698724093932 0.0011357555456269308
0.4178745339836619 -0.0007707300198981201 0.0024469060800028303
0.4177622867315293 -0.0009147489725218386 0.003813868334070862
0.41838720976455235 -0.0010503766316302234 0.00546090039040448
0.41967314181486626 -0.0013131293034842914 0.007410652857563009
0.42108258212785027 -0.0019116411272722864 0.009826456599975629
0.4214431001967817 -0.0032415320206996747 0.01341988570254981
0.41904505931687724 -0.005832143812323606 0.020322164083975185
0.4111660606609863 -0.012906831571864247 0.042614625326492794
0.44999999999999996 0.0 0.0
0.44999999999999996 0.0 0.0
0.44999999999999996 0.0 0.0
0.44999999999999996 0.0 0.0
0.44999999999999996 0.0 0.0
0.44999999999999996 0.0 0.0
0.44999999999999996 0.0 0.0
0.44999999999999996 0.0 0.0
0.44999999999999996 0.0 0.0
0.44999999999999996 0.0 0.0
0.44999999999999996 0.0 0.0
0.0 0.0 0.0
0.0 0.0 0.0
0.0 0.0 0.0
0.0 0.0 0.0
0.0 0.0 0.0
0.0 0.0 0.0
0.0 0.0 0.0
0.0 0.0 0.0
0.0 0.0 0.0
0.0 0.0 0.0
0.0 0.0 0.0
0.04590327974591897 0.010899487340115557 0.029066121895307825
0.038480666413244144 0.003972014381295972 0.014605637906963228
0.035592087792637846 0.002079767424614062 0.009458276469949544
0.03468841468434868 0.0010667123331720822 0.006599298915481027
0.03484976909282296 0.0006121122159611896 0.004841805014524626
0.03535092325754044 0.00037200776774691367 0.0036106762347105957
0.03584695853165685 0.00020067569185963673 0.0026745129275528444
0.03634465909708264 -3.0248612740129746e-05 0.0018880624546488362
0.037225178807697816 -0.0006018685354727321 0.0009449575623704817
0.03917645917645927 -0.0016725669664074104 -0.00255497086693167
0.039633004334546466 -0.009952964209578965 -0.023625974497482192
0.08937497585930346 0.03315530503279114 0.036550547498845364
0.07733519858587766 0.014202834759594692 0.023127996609950713
0.07228882093558621 0.006965504547234727 0.0141829039714876
0.0708823839278036 0.0035798677634327988 0.010015418165852493
0.07121458719221863 0.0019233738059613687 0.007472028063379906
0.07218734976966111 0.0010619796860706619 0.005829992372075215
0.07327336402830167 0.00043541979873491473 0.004665349039017196
0.0744652967210103 -0.000516302584707795 0.0035976090254166014
0.07624480262437602 -0.002501596439327244 0.0018220452120453613
0.0788290925964183 -0.007291139314646854 -0.0052512920789088155
0.07667942776623693 -0.027387826279842688 -0.023153754792749268
0.1356941543185998 0.052353593167862866 0.03376639329296644
0.1220884268497324 0.024199556177758205 0.023502528029495224
0.11648087056842202 0.011354921305731505 0.015663428719581523
0.11529102622210946 0.005524488806369028 0.011259702680031918
0.11604592710845281 0.002694391104617354 0.00875044176333472
0.1175412925623151 0.0012395562653113453 0.007253461710845168
0.1192409460247346 9.794608578817661e-05 0.006289941398787078
0.12103326764248241 -0.0017689808033677034 0.005335677461195258
0.12308774069219432 -0.0056922849189895205 0.003120179600732227
0.12474060667666886 -0.0153770869477678 -0.002094992063386113
0.11910389729933149 -0.044730817902912126 -0.013173176982415193
0.18508959307555997 0.0627089065239992 0.024610513219915826
0.17171655970835706 0.029197025536484827 0.018522593810251745
0.16697308336487082 0.013250925907132467 0.013748444167010303
0.16650837904866722 0.006040351765358841 0.010677820533915323
0.16769883478256195 0.002605442008323112 0.008877353622983787
0.16950894912846937 0.0008062149549362457 0.007919587455929378
0.1714764873027868 -0.0007806994455583159 0.007448782165364499
0.1733775265823187 -0.0035174536695438494 0.007023651496265998
0.17490633377731862 -0.009365114357918161 0.006020654120956743
0.1743638882785607 -0.023093407744972892 0.0038665789599536798
0.16507458243384052 -0.05754301310882332 -0.0004940471431798526
0.23591967257391575 0.06384107673987503 0.012077796188422387
0.22394747219108296 0.028297851741186555 0.011011313178063885
0.22103288712905705 0.012295574334399878 0.009837616868999035
0.2215277471227636 0.005180520330707928 0.008831928933209922
0.22308730892788942 0.0018343353300995292 0.00819654828245238
0.22499999999999995 -1.1025504968908976e-17 0.007977348294468715
0.2269126910721106 -0.001834335330099493 0.008196548282452434
0.22847225287723646 -0.005180520330707847 0.00883192893321003
0.22896711287094296 -0.012295574334399855 0.009837616868999147
0.2260525278089171 -0.028297851741186493 0.011011313178063998
0.21408032742608424 -0.06384107673987503 0.012077796188422495
0.2849254175661598 0.05754301310882314 -0.0004940471431799723
0.2756361117214396 0.02309340774497289 0.0038665789599535445
0.27509366622268167 0.009365114357918203 0.006020654120956583
0.2766224734176816 0.00351745366954394 0.007023651496265869
0.2785235126972136 0.0007806994455583535 0.007448782165364445
0.280491050871531 -0.0008062149549362491 0.007919587455929352
0.2823011652174384 -0.002605442008323103 0.008877353622983856
0.28349162095133307 -0.006040351765358781 0.010677820533915385
0.28302691663512936 -0.013250925907132472 0.013748444167010388
0.27828344029164315 -0.029197025536484802 0.018522593810251828
0.26491040692444023 -0.06270890652399912 0.024610513219915926
0.33089610270066894 0.044730817902911946 -0.013173176982415364
0.3252593933233316 0.015377086947767774 -0.002094992063386186
0.32691225930780615 0.0056922849189895725 0.0031201796007321713
0.328966732357518 0.0017689808033677502 0.005335677461195154
0.3307590539752657 -9.794608578823e-05 0.006289941398787018
0.33245870743768535 -0.0012395562653113824 0.007253461710845134
0.3339540728915476 -0.0026943911046173412 0.008750441763334754
0.3347089737778909 -0.005524488806368974 0.011259702680031892
0.33351912943157824 -0.011354921305731517 0.01566342871958153
0.32791157315026787 -0.024199556177758208 0.02350252802949525
0.3143058456814005 -0.05235359316786284 0.03376639329296648
0.37332057223376336 0.027387826279842546 -0.023153754792749285
0.3711709074035821 0.00729113931464686 -0.005251292078908897
0.3737551973756244 0.002501596439327293 0.0018220452120453084
0.3755347032789902 0.0005163025847078014 0.0035976090254165585
0.37672663597169875 -0.00043541979873494834 0.004665349039017174
0.3778126502303392 -0.0010619796860707007 0.005829992372075169
0.3787854128077818 -0.0019233738059613696 0.0074720280633798885
0.37911761607219685 -0.0035798677634327697 0.010015418165852451
0.37771117906441426 -0.006965504547234791 0.014182903971487564
0.3726648014141228 -0.014202834759594777 0.02312799660995072
0.36062502414069697 -0.03315530503279127 0.03655054749884545
0.41036699566545376 0.00995296420957892 -0.02362597449748205
0.410823540823541 0.0016725669664073883 -0.0025549708669317067
0.41277482119230247 0.0006018685354727628 0.0009449575623704181
0.41365534090291767 3.0248612740127347e-05 0.0018880624546488097
0.4141530414683435 -0.0002006756918596134 0.0026745129275527564
0.4146490767424599 -0.0003720077677469342 0.00361067623471053
0.41515023090717734 -0.000612112215961217 0.004841805014524556
0.4153115853156516 -0.0010667123331720794 0.006599298915480972
0.41440791220736234 -0.0020797674246141175 0.009458276469949508
0.411519333586756 -0.003972014381295994 0.014605637906963212
0.40409672025408117 -0.010899487340115584 0.029066121895307852
0.44999999999999996 0.0 0.0
0.44999999999999996 0.0 0.0
0.44999999999999996 0.0 0.0
0.44999999999999996 0.0 0.0
0.44999999999999996 0.0 0.0
0.44999999999999996 0.0 0.0
0.44999999999999996 0.0 0.0
0.44999999999999996 0.0 0.0
0.44999999999999996 0.0 0.0
0.44999999999999996 0.0 0.0
0.44999999999999996 0.0 0.0
0.0 0.0 0.0
0.0 0.0 0.0
0.0 0.0 0.0
0.0 0.0 0.0
0.0 0.0 0.0
0.0 0.0 0.0
0.0 0.0 0.0
0.0 0.0 0.0
0.0 0.0 0.0
0.0 0.0 0.0
0.0 0.0 0.0
0.051399851861359196 0.011185542747211622 0.018653535128031994
0.04235823889028752 0.004060171885333393 0.01039577159449955
0.03890714313047007 0.002245509897339752 0.006944394284194092
0.03744397712279661 0.0011287582900068483 0.00474519044975614
0.037132885255714024 0.000616583247623689 0.0034007054743359893
0.03734652977174378 0.0003261570488784178 0.0025393214762768537
0.03780846953880828 0.00010104179756357479 0.0019361437025086459
0.03853505189575032 -0.00022589579021662338 0.0014169406947183495
0.03992959232044547 -0.0009942461265165677 0.0005637410736929847
0.04281551422096528 -0.0027094637223812955 -0.0020410407641389783
0.04661203073677464 -0.010800190231070733 -0.014207484752977886
0.09475633405556831 0.032613484305216885 0.024315560141152104
0.08204373668995482 0.014499167202490417 0.016335117608173685
0.07637477090504738 0.00710870199819206 0.010336220291006367
0.07434648665752489 0.003545583550286166 0.007216762897203469
0.07416225368781357 0.0017584905328234407 0.0053288524945405875
0.07485409754925333 0.0007751045401968297 0.004174816849293648
0.0759648692353049 9.452031215137676e-06 0.00338472728847308
0.07744942477592258 -0.0011471111625512328 0.0025722152121813867
0.07962138907985908 -0.003539691719987066 0.0010076469951436125
0.08261019083678195 -0.009795572103005247 -0.004009170729830582
0.08416981632545742 -0.02846103188942223 -0.014290130468055686
0.14016047007750115 0.050824719597727636 0.023145695796455833
0.12665346572050534 0.024609413475930125 0.016725949253403247
0.12042054563763271 0.011769164812235769 0.011486711313556889
0.11845759047769246 0.005656285696756583 0.008241492753079942
0.11861780558417825 0.0025954651961521483 0.006403212399789424
0.11976718112520236 0.000896113023092562 0.0053351528591311665
0.12138110066293493 -0.0005096543165607858 0.004632771067618051
0.12328251955148928 -0.0027068376609155308 0.0038063872122460225
0.12541970235015973 -0.007228670906581156 0.0019171099925467503
0.12677945645471292 -0.018463885199900727 -0.0017208219436165339
0.12425290190080565 -0.04512973522621019 -0.008185919066348153
0.18801232793823072 0.06118487829229283 0.017142843127885034
0.17528594555738547 0.03024564369287177 0.01335242589232915
0.16980815280552713 0.014260195078448355 0.010058371920752342
0.16854850804977609 0.006580579224045089 0.007868201260063655
0.16922017630037198 0.002752726465651438 0.0066075116629698075
0.1707147553912596 0.0005924059651525297 0.0059408539381070056
0.17249948510224572 -0.0013566968281082511 0.005564115088596568
0.1742457695203003 -0.0045560660947597574 0.005098689425483361
0.17547043007143354 -0.011116717806428065 0.004190301586013423
0.17431628028422588 -0.025983918307330284 0.002766953475691669
0.16740962263917805 -0.057219229865126925 -3.866768465287312e-05
0.23638180920038715 0.06295703600378885 0.00845823107889857
0.22586791996840885 0.0304094871916691 0.008005187147589637
0.2222082559230719 0.013854002433669032 0.007133306106277091
0.2221021879275663 0.006076881914397054 0.006517066551072355
0.22332184142030959 0.0022338924461889394 0.006169081649036884
0.22500000000000014 9.475224340147844e-18 0.0060500627050563
0.2266781585796907 -0.002233892446188948 0.006169081649036903
0.22789781207243404 -0.006076881914397019 0.006517066551072473
0.22779174407692848 -0.013854002433668964 0.007133306106277205
0.22413208003159144 -0.0304094871916691 0.008005187147589767
0.2136181907996131 -0.06295703600378894 0.008458231078898613
0.28259037736082215 0.05721922986512684 -3.866768465293703e-05
0.2756837197157744 0.025983918307330257 0.0027669534756915764
0.2745295699285667 0.011116717806428108 0.004190301586013314
0.27575423047969994 0.004556066094759841 0.0050986894254832615
0.2775005148977543 0.001356696828108228 0.0055641150885965395
0.2792852446087404 -0.0005924059651525466 0.005940853938106996
0.2807798236996281 -0.0027527264656514333 0.006607511662969903
0.281451491950224 -0.00658057922404507 0.007868201260063734
0.280191847194473 -0.014260195078448296 0.01005837192075242
0.27471405444261476 -0.030245643692871717 0.013352425892329206
0.2619876720617694 -0.061184878292292764 0.017142843127885107
0.32574709809919467 0.045129735226210006 -0.008185919066348277
0.3232205435452874 0.018463885199900675 -0.0017208219436166035
0.32458029764984064 0.007228670906581131 0.001917109992546732
0.3267174804485112 0.002706837660915611 0.003806387212245989
0.3286188993370654 0.0005096543165607634 0.004632771067618038
0.3302328188747979 -0.000896113023092621 0.005335152859131161
0.33138219441582206 -0.002595465196152165 0.00640321239978947
0.3315424095223079 -0.005656285696756586 0.008241492753079963
0.32957945436236763 -0.011769164812235772 0.011486711313556934
0.3233465342794951 -0.02460941347593014 0.01672594925340326
0.30983952992249936 -0.0508247195977276 0.02314569579645586
0.36583018367454295 0.02846103188942207 -0.014290130468055722
0.3673898091632185 0.009795572103005204 -0.004009170729830645
0.37037861092014135 0.00353969171998703 0.001007646995143562
0.37255057522407786 0.0011471111625513007 0.0025722152121813824
0.37403513076469547 -9.452031215154427e-06 0.0033847272884730624
0.3751459024507471 -0.0007751045401968796 0.0041748168492936
0.37583774631218686 -0.0017584905328234602 0.005328852494540531
0.3756535133424755 -0.003545583550286201 0.0072167628972034156
0.373625229094953 -0.007108701998192129 0.010336220291006322
0.3679562633100455 -0.014499167202490459 0.016335117608173688
0.3552436659444321 -0.03261348430521684 0.02431556014115216
0.4033879692632257 0.010800190231070641 -0.014207484752977848
0.40718448577903504 0.0027094637223812647 -0.0020410407641390294
0.4100704076795548 0.0009942461265165568 0.0005637410736929573
0.41146494810424994 0.00022589579021665501 0.0014169406947183375
0.41219153046119206 -0.00010104179756357501 0.0019361437025085418
0.41265347022825644 -0.0003261570488784603 0.0025393214762767925
0.41286711474428617 -0.0006165832476237028 0.003400705474335915
0.41255602287720355 -0.001128758290006872 0.004745190449756124
0.41109285686953 -0.0022455098973397786 0.006944394284194076
0.4076417611097125 -0.004060171885333401 0.010395771594499491
0.3986001481386409 -0.011185542747211591 0.018653535128031966
0.44999999999999996 0.0 0.0
0.44999999999999996 0.0 0.0
0.44999999999999996 0.0 0.0
0.44999999999999996 0.0 0.0
0.44999999999999996 0.0 0.0
0.44999999999999996 0.0 0.0
0.44999999999999996 0.0 0.0
0.44999999999999996 0.0 0.0
0.44999999999999996 0.0 0.0
0.44999999999999996 0.0 0.0
0.44999999999999996 0.0 0.0
0.0 0.0 0.0
0.0 0.0 0.0
0.0 0.0 0.0
0.0 0.0 0.0