# vtk DataFile Version 3.0
Some data
ASCII
DATASET UNSTRUCTURED_GRID
POINTS 1331 float
0.0 0.0 0.0
0.1 0.0 0.0
0.2 0.0 0.0
0.30000000000000004 0.0 0.0
0.4 0.0 0.0
0.5 0.0 0.0
0.6000000000000001 0.0 0.0
0.7000000000000001 0.0 0.0
0.8 0.0 0.0
0.9 0.0 0.0
1.0 0.0 0.0
0.0 0.1 0.0
0.1 0.1 0.0
0.2 0.1 0.0
0.30000000000000004 0.1 0.0
0.4 0.1 0.0
0.5 0.1 0.0
0.6000000000000001 0.1 0.0
0.7000000000000001 0.1 0.0
0.8 0.1 0.0
0.9 0.1 0.0
1.0 0.1 0.0
0.0 0.2 0.0
0.1 0.2 0.0
0.2 0.2 0.0
0.30000000000000004 0.2 0.0
0.4 0.2 0.0
0.5 0.2 0.0
0.6000000000000001 0.2 0.0
0.7000000000000001 0.2 0.0
0.8 0.2 0.0
0.9 0.2 0.0
1.0 0.2 0.0
0.0 0.30000000000000004 0.0
0.1 0.30000000000000004 0.0
0.2 0.30000000000000004 0.0
0.30000000000000004 0.30000000000000004 0.0
0.4 0.30000000000000004 0.0
0.5 0.30000000000000004 0.0
0.6000000000000001 0.30000000000000004 0.0
0.7000000000000001 0.30000000000000004 0.0
0.8 0.30000000000000004 0.0
0.9 0.30000000000000004 0.0
1.0 0.30000000000000004 0.0
0.0 0.4 0.0
0.1 0.4 0.0
0.2 0.4 0.0
0.30000000000000004 0.4 0.0
0.4 0.4 0.0
0.5 0.4 0.0
0.6000000000000001 0.4 0.0
0.7000000000000001 0.4 0.0
0.8 0.4 0.0
0.9 0.4 0.0
1.0 0.4 0.0
0.0 0.5 0.0
0.1 0.5 0.0
0.2 0.5 0.0
0.30000000000000004 0.5 0.0
0.4 0.5 0.0
0.5 0.5 0.0
0.6000000000000001 0.5 0.0
0.7000000000000001 0.5 0.0
0.8 0.5 0.0
0.9 0.5 0.0
1.0 0.5 0.0
0.0 0.6000000000000001 0.0
0.1 0.6000000000000001 0.0
0.2 0.6000000000000001 0.0
0.30000000000000004 0.6000000000000001 0.0
0.4 0.6000000000000001 0.0
0.5 0.6000000000000001 0.0
0.6000000000000001 0.6000000000000001 0.0
0.7000000000000001 0.6000000000000001 0.0
0.8 0.6000000000000001 0.0
0.9 0.6000000000000001 0.0
1.0 0.6000000000000001 0.0
0.0 0.7000000000000001 0.0
0.1 0.7000000000000001 0.0
0.2 0.7000000000000001 0.0
0.30000000000000004 0.7000000000000001 0.0
0.4 0.7000000000000001 0.0
0.5 0.7000000000000001 0.0
0.6000000000000001 0.7000000000000001 0.0
0.7000000000000001 0.7000000000000001 0.0
0.8 0.7000000000000001 0.0
0.9 0.7000000000000001 0.0
1.0 0.7000000000000001 0.0
0.0 0.8 0.0
0.1 0.8 0.0
0.2 0.8 0.0
0.30000000000000004 0.8 0.0
0.4 0.8 0.0
0.5 0.8 0.0
0.6000000000000001 0.8 0.0
0.7000000000000001 0.8 0.0
0.8 0.8 0.0
0.9 0.8 0.0
1.0 0.8 0.0
0.0 0.9 0.0
0.1 0.9 0.0
0.2 0.9 0.0
0.30000000000000004 0.9 0.0
0.4 0.9 0.0
0.5 0.9 0.0
0.6000000000000001 0.9 0.0
0.7000000000000001 0.9 0.0
0.8 0.9 0.0
0.9 0.9 0.0
1.0 0.9 0.0
0.0 1.0 0.0
0.1 1.0 0.0
0.2 1.0 0.0
0.30000000000000004 1.0 0.0
0.4 1.0 0.0
0.5 1.0 0.0
0.6000000000000001 1.0 0.0
0.7000000000000001 1.0 0.0
0.8 1.0 0.0
0.9 1.0 0.0
1.0 1.0 0.0
0.0 0.0 0.1
0.1 0.0 0.1
0.2 0.0 0.1
0.30000000000000004 0.0 0.1
0.4 0.0 0.1
0.5 0.0 0.1
0.6000000000000001 0.0 0.1
0.7000000000000001 0.0 0.1
0.8 0.0 0.1
0.9 0.0 0.1
1.0 0.0 0.1
0.0 0.1 0.1
0.1 0.1 0.1
0.2 0.1 0.1
0.30000000000000004 0.1 0.1
0.4 0.1 0.1
0.5 0.1 0.1
0.6000000000000001 0.1 0.1
0.7000000000000001 0.1 0.1
0.8 0.1 0.1
0.9 0.1 0.1
1.0 0.1 0.1
0.0 0.2 0.1
0.1 0.2 0.1
0.2 0.2 0.1
0.30000000000000004 0.2 0.1
0.4 0.2 0.1
0.5 0.2 0.1
0.6000000000000001 0.2 0.1
0.7000000000000001 0.2 0.1
0.8 0.2 0.1
0.9 0.2 0.1
1.0 0.2 0.1
0.0 0.30000000000000004 0.1
0.1 0.30000000000000004 0.1
0.2 0.30000000000000004 0.1
0.30000000000000004 0.30000000000000004 0.1
0.4 0.30000000000000004 0.1
0.5 0.30000000000000004 0.1
0.6000000000000001 0.30000000000000004 0.1
0.7000000000000001 0.30000000000000004 0.1
0.8 0.30000000000000004 0.1
0.9 0.30000000000000004 0.1
1.0 0.30000000000000004 0.1
0.0 0.4 0.1
0.1 0.4 0.1
0.2 0.4 0.1
0.30000000000000004 0.4 0.1
0.4 0.4 0.1
0.5 0.4 0.1
0.6000000000000001 0.4 0.1
0.7000000000000001 0.4 0.1
0.8 0.4 0.1
0.9 0.4 0.1
1.0 0.4 0.1
0.0 0.5 0.1
0.1 0.5 0.1
0.2 0.5 0.1
0.30000000000000004 0.5 0.1
0.4 0.5 0.1
0.5 0.5 0.1
0.6000000000000001 0.5 0.1
0.7000000000000001 0.5 0.1
0.8 0.5 0.1
0.9 0.5 0.1
1.0 0.5 0.1
0.0 0.6000000000000001 0.1
0.1 0.6000000000000001 0.1
0.2 0.6000000000000001 0.1
0.30000000000000004 0.6000000000000001 0.1
0.4 0.6000000000000001 0.1
0.5 0.6000000000000001 0.1
0.6000000000000001 0.6000000000000001 0.1
0.7000000000000001 0.6000000000000001 0.1
0.8 0.6000000000000001 0.1
0.9 0.6000000000000001 0.1
1.0 0.6000000000000001 0.1
0.0 0.7000000000000001 0.1
0.1 0.7000000000000001 0.1
0.2 0.7000000000000001 0.1
0.30000000000000004 0.7000000000000001 0.1
0.4 0.7000000000000001 0.1
0.5 0.7000000000000001 0.1
0.6000000000000001 0.7000000000000001 0.1
0.7000000000000001 0.7000000000000001 0.1
0.8 0.7000000000000001 0.1
0.9 0.7000000000000001 0.1
1.0 0.7000000000000001 0.1
0.0 0.8 0.1
0.1 0.8 0.1
0.2 0.8 0.1
0.30000000000000004 0.8 0.1
0.4 0.8 0.1
0.5 0.8 0.1
0.6000000000000001 0.8 0.1
0.7000000000000001 0.8 0.1
0.8 0.8 0.1
0.9 0.8 0.1
1.0 0.8 0.1
0.0 0.9 0.1
0.1 0.9 0.1
0.2 0.9 0.1
0.30000000000000004 0.9 0.1
0.4 0.9 0.1
0.5 0.9 0.1
0.6000000000000001 0.9 0.1
0.7000000000000001 0.9 0.1
0.8 0.9 0.1
0.9 0.9 0.1
1.0 0.9 0.1
0.0 1.0 0.1
0.1 1.0 0.1
0.2 1.0 0.1
0.30000000000000004 1.0 0.1
0.4 1.0 0.1
0.5 1.0 0.1
0.6000000000000001 1.0 0.1
0.7000000000000001 1.0 0.1
0.8 1.0 0.1
0.9 1.0 0.1
1.0 1.0 0.1
0.0 0.0 0.2
0.1 0.0 0.2
0.2 0.0 0.2
0.30000000000000004 0.0 0.2
0.4 0.0 0.2
0.5 0.0 0.2
0.6000000000000001 0.0 0.2
0.7000000000000001 0.0 0.2
0.8 0.0 0.2
0.9 0.0 0.2
1.0 0.0 0.2
0.0 0.1 0.2
0.1 0.1 0.2
0.2 0.1 0.2
0.30000000000000004 0.1 0.2
0.4 0.1 0.2
0.5 0.1 0.2
0.6000000000000001 0.1 0.2
0.7000000000000001 0.1 0.2
0.8 0.1 0.2
0.9 0.1 0.2
1.0 0.1 0.2
0.0 0.2 0.2
0.1 0.2 0.2
0.2 0.2 0.2
0.30000000000000004 0.2 0.2
0.4 0.2 0.2
0.5 0.2 0.2
0.6000000000000001 0.2 0.2
0.7000000000000001 0.2 0.2
0.8 0.2 0.2
0.9 0.2 0.2
1.0 0.2 0.2
0.0 0.30000000000000004 0.2
0.1 0.30000000000000004 0.2
0.2 0.30000000000000004 0.2
0.30000000000000004 0.30000000000000004 0.2
0.4 0.30000000000000004 0.2
0.5 0.30000000000000004 0.2
0.6000000000000001 0.30000000000000004 0.2
0.7000000000000001 0.30000000000000004 0.2
0.8 0.30000000000000004 0.2
0.9 0.30000000000000004 0.2
1.0 0.30000000000000004 0.2
0.0 0.4 0.2
0.1 0.4 0.2
0.2 0.4 0.2
0.30000000000000004 0.4 0.2
0.4 0.4 0.2
0.5 0.4 0.2
0.6000000000000001 0.4 0.2
0.7000000000000001 0.4 0.2
0.8 0.4 0.2
0.9 0.4 0.2
1.0 0.4 0.2
0.0 0.5 0.2
0.1 0.5 0.2
0.2 0.5 0.2
0.30000000000000004 0.5 0.2
0.4 0.5 0.2
0.5 0.5 0.2
0.6000000000000001 0.5 0.2
0.7000000000000001 0.5 0.2
0.8 0.5 0.2
0.9 0.5 0.2
1.0 0.5 0.2
0.0 0.6000000000000001 0.2
0.1 0.6000000000000001 0.2
0.2 0.6000000000000001 0.2
0.30000000000000004 0.6000000000000001 0.2
0.4 0.6000000000000001 0.2
0.5 0.6000000000000001 0.2
0.6000000000000001 0.6000000000000001 0.2
0.7000000000000001 0.6000000000000001 0.2
0.8 0.6000000000000001 0.2
0.9 0.6000000000000001 0.2
1.0 0.6000000000000001 0.2
0.0 0.7000000000000001 0.2
0.1 0.7000000000000001 0.2
0.2 0.7000000000000001 0.2
0.30000000000000004 0.7000000000000001 0.2
0.4 0.7000000000000001 0.2
0.5 0.7000000000000001 0.2
0.6000000000000001 0.7000000000000001 0.2
0.7000000000000001 0.7000000000000001 0.2
0.8 0.7000000000000001 0.2
0.9 0.7000000000000001 0.2
1.0 0.7000000000000001 0.2
0.0 0.8 0.2
0.1 0.8 0.2
0.2 0.8 0.2
0.30000000000000004 0.8 0.2
0.4 0.8 0.2
0.5 0.8 0.2
0.6000000000000001 0.8 0.2
0.7000000000000001 0.8 0.2
0.8 0.8 0.2
0.9 0.8 0.2
1.0 0.8 0.2
0.0 0.9 0.2
0.1 0.9 0.2
0.2 0.9 0.2
0.30000000000000004 0.9 0.2
0.4 0.9 0.2
0.5 0.9 0.2
0.6000000000000001 0.9 0.2
0.7000000000000001 0.9 0.2
0.8 0.9 0.2
0.9 0.9 0.2
1.0 0.9 0.2
0.0 1.0 0.2
0.1 1.0 0.2
0.2 1.0 0.2
0.30000000000000004 1.0 0.2
0.4 1.0 0.2
0.5 1.0 0.2
0.6000000000000001 1.0 0.2
0.7000000000000001 1.0 0.2
0.8 1.0 0.2
0.9 1.0 0.2
1.0 1.0 0.2
0.0 0.0 0.30000000000000004
0.1 0.0 0.30000000000000004
0.2 0.0 0.30000000000000004
0.30000000000000004 0.0 0.30000000000000004
0.4 0.0 0.30000000000000004
0.5 0.0 0.30000000000000004
0.6000000000000001 0.0 0.30000000000000004
0.7000000000000001 0.0 0.30000000000000004
0.8 0.0 0.30000000000000004
0.9 0.0 0.30000000000000004
1.0 0.0 0.30000000000000004
0.0 0.1 0.30000000000000004
0.1 0.1 0.30000000000000004
0.2 0.1 0.30000000000000004
0.30000000000000004 0.1 0.30000000000000004
0.4 0.1 0.30000000000000004
0.5 0.1 0.30000000000000004
0.6000000000000001 0.1 0.30000000000000004
0.7000000000000001 0.1 0.30000000000000004
0.8 0.1 0.30000000000000004
0.9 0.1 0.30000000000000004
1.0 0.1 0.30000000000000004
0.0 0.2 0.30000000000000004
0.1 0.2 0.30000000000000004
0.2 0.2 0.30000000000000004
0.30000000000000004 0.2 0.30000000000000004
0.4 0.2 0.30000000000000004
0.5 0.2 0.30000000000000004
0.6000000000000001 0.2 0.30000000000000004
0.7000000000000001 0.2 0.30000000000000004
0.8 0.2 0.30000000000000004
0.9 0.2 0.30000000000000004
1.0 0.2 0.30000000000000004
0.0 0.30000000000000004 0.30000000000000004
0.1 0.30000000000000004 0.30000000000000004
0.2 0.30000000000000004 0.30000000000000004
0.30000000000000004 0.30000000000000004 0.30000000000000004
0.4 0.30000000000000004 0.30000000000000004
0.5 0.30000000000000004 0.30000000000000004
0.6000000000000001 0.30000000000000004 0.30000000000000004
0.7000000000000001 0.30000000000000004 0.30000000000000004
0.8 0.30000000000000004 0.30000000000000004
0.9 0.30000000000000004 0.30000000000000004
1.0 0.30000000000000004 0.30000000000000004
0.0 0.4 0.30000000000000004
0.1 0.4 0.30000000000000004
0.2 0.4 0.30000000000000004
0.30000000000000004 0.4 0.30000000000000004
0.4 0.4 0.30000000000000004
0.5 0.4 0.30000000000000004
0.6000000000000001 0.4 0.30000000000000004
0.7000000000000001 0.4 0.30000000000000004
0.8 0.4 0.30000000000000004
0.9 0.4 0.30000000000000004
1.0 0.4 0.30000000000000004
0.0 0.5 0.30000000000000004
0.1 0.5 0.30000000000000004
0.2 0.5 0.30000000000000004
0.30000000000000004 0.5 0.30000000000000004
0.4 0.5 0.30000000000000004
0.5 0.5 0.30000000000000004
0.6000000000000001 0.5 0.30000000000000004
0.7000000000000001 0.5 0.30000000000000004
0.8 0.5 0.30000000000000004
0.9 0.5 0.30000000000000004
1.0 0.5 0.30000000000000004
0.0 0.6000000000000001 0.30000000000000004
0.1 0.6000000000000001 0.30000000000000004
0.2 0.6000000000000001 0.30000000000000004
0.30000000000000004 0.6000000000000001 0.30000000000000004
[...]
POINT_DATA 1331
VECTORS Disp float
0.0 0.0 0.0
0.0 0.0 0.0
0.0 0.0 0.0
0.0 0.0 0.0
0.0 0.0 0.0
0.0 0.0 0.0
0.0 0.0 0.0
0.0 0.0 0.0
0.0 0.0 0.0
0.0 0.0 0.0
0.0 0.0 0.0
0.04742300713356007 0.014095800674506862 0.05026672319926495
0.03825357067979553 0.006443834173326184 0.02380272457187662
0.03558783503263146 0.0036462660028879386 0.015882540127306752
0.036004787772402895 0.0022491833814220915 0.012002253285269373
0.03769901240237558 0.0016308413845469646 0.009572094544357966
0.03935510731516803 0.0013600495692779571 0.007648978404868761
0.04035232925820864 0.001204852322733423 0.006060189349079129
0.040661228831996694 0.00103007777361803 0.004819235765610944
0.04058250936904637 0.0005104363207441121 0.0034454585009149703
0.04068670398666899 0.0007887247566365646 -0.0011697364780012855
0.034661429250480824 -0.005430631213270874 -0.03862509982011539
0.09844282543219846 0.039850838248996365 0.06292491606165801
0.08490382067060237 0.017574374298910293 0.03809661234926303
0.08125582812990584 0.009048079845065575 0.02389038918026282
0.08203092601428598 0.005080278767147493 0.017739631142459196
0.08429415349329834 0.0033969624699198876 0.014014285884007945
0.08649210756618883 0.00269478933690912 0.01148227630665525
0.08797043609149441 0.002339977701751277 0.00963184750766862
0.08861639251602801 0.0018325312235620542 0.008051756752011889
0.08869756427511265 0.0005950126341368212 0.005851879012655669
0.08859214388759448 -0.0011020205147988672 -0.004699994376217156
0.07714163210508132 -0.019236455796278796 -0.03755876700612507
0.15485120901119348 0.0593313606634461 0.05718830121983041
0.13936186341230572 0.026208897896684596 0.039158374091507096
0.13553307658691835 0.01235912549949376 0.026329338309004705
0.13666001963975455 0.006443399115668933 0.019760542649751026
0.13938570546050566 0.003934598860344387 0.01607067291289553
0.1422808915428928 0.0028777994320702887 0.013842767366869242
0.1448121781045683 0.0022597008471967345 0.012435486582825861
0.14688161790510362 0.0012142670280384299 0.011279283801836045
0.14870925475531277 -0.0012141282222453242 0.008683944079424749
0.14968444162362943 -0.00742473921842288 0.0003531929418305309
0.13580775012083068 -0.03635717015909283 -0.02061372433246453
0.2174685207974416 0.06668948494123034 0.04220991835110318
0.20119702725635275 0.028306637097201902 0.03165228477553924
0.1982987528644873 0.012395466289296926 0.02392324800885326
0.20004421954093046 0.005808456443970041 0.01910929397799534
0.203170657735876 0.003039923727036179 0.016365548276127614
0.20654564025499705 0.0018183031377669951 0.014912619334702119
0.20977669495868 0.0008856178225629319 0.014280124016553255
0.21275416488526092 -0.0008860234826773772 0.013975077613366286
0.2153620787188111 -0.005148734600472667 0.012982292396725695
0.21589988314320985 -0.016102848433432848 0.009459679281474731
0.20084135350544066 -0.05238002882271767 0.0013963050823952348
0.2831445925933464 0.0633107382590691 0.022481232442460208
0.2672156639374813 0.024028036724333273 0.02031094660710673
0.26607439612964157 0.009519469526405814 0.01843858591721212
0.26837681870324254 0.0036089763596869016 0.016552158094427595
0.2715719606028434 0.0011630943270273142 0.015395914432470478
0.2749999999999996 -5.2991840617420705e-17 0.015004999423669028
0.278428039397156 -0.0011630943270272513 0.015395914432470596
0.2816231812967569 -0.0036089763596868787 0.016552158094427755
0.2839256038703581 -0.009519469526405722 0.018438585917212154
0.28278433606251835 -0.02402803672433323 0.020310946607106757
0.26685540740665326 -0.06331073825906912 0.022481232442460287
0.34915864649455913 0.052380028822717487 0.0013963050823951673
0.33410011685679003 0.016102848433432834 0.0094596792814746
0.33463792128118885 0.005148734600472782 0.012982292396725551
0.33724583511473893 0.0008860234826774613 0.013975077613366164
0.34022330504131976 -0.0008856178225628799 0.014280124016553169
0.34345435974500255 -0.0018183031377670847 0.014912619334702105
0.34682934226412365 -0.0030399237270361083 0.01636554827612755
0.34995578045906917 -0.0058084564439700725 0.019109293977995233
0.35170124713551226 -0.012395466289296945 0.023923248008853207
0.3488029727436469 -0.028306637097201763 0.0316522847755392
0.3325314792025579 -0.06668948494123018 0.04220991835110301
0.4141922498791689 0.03635717015909266 -0.020613724332464563
0.4003155583763703 0.007424739218422878 0.0003531929418304574
0.401290745244687 0.0012141282222454465 0.008683944079424634
0.4031183820948961 -0.0012142670280383492 0.011279283801835826
0.40518782189543134 -0.002259700847196667 0.012435486582825776
0.4077191084571068 -0.002877799432070273 0.01384276736686924
0.410614294539494 -0.003934598860344419 0.016070672912895503
0.41333998036024505 -0.006443399115668986 0.01976054264975094
0.4144669234130812 -0.01235912549949379 0.026329338309004656
0.410638136587694 -0.026208897896684406 0.03915837409150709
0.3951487909888062 -0.059331360663445964 0.05718830121983028
0.47285836789491786 0.019236455796278747 -0.037558767006125045
0.4614078561124048 0.0011020205147988398 -0.004699994376217246
0.46130243572488683 -0.0005950126341366488 0.005851879012655653
0.46138360748397145 -0.0018325312235620377 0.008051756752011894
0.4620295639085052 -0.0023399777017512825 0.009631847507668751
0.4635078924338109 -0.0026947893369090726 0.011482276306655291
0.4657058465067013 -0.003396962469919932 0.01401428588400794
0.4679690739857137 -0.005080278767147528 0.0177396311424592
0.4687441718700938 -0.009048079845065615 0.023890389180262876
0.4650961793293975 -0.01757437429891017 0.038096612349263134
0.45155717456780137 -0.03985083824899635 0.0629249160616581
0.5153385707495186 0.005430631213270768 -0.038625099820115444
0.5093132960133304 -0.0007887247566365633 -0.0011697364780013137
0.5094174906309531 -0.0005104363207440142 0.003445458500914882
0.5093387711680027 -0.0010300777736180556 0.004819235765611
0.5096476707417908 -0.0012048523227334552 0.006060189349079175
0.5106448926848316 -0.0013600495692779192 0.007648978404868789
0.512300987597624 -0.001630841384546993 0.009572094544357965
0.5139952122275967 -0.0022491833814220746 0.012002253285269349
0.5144121649673682 -0.0036462660028879564 0.015882540127306808
0.5117464293202042 -0.006443834173326103 0.02380272457187677
0.5025769928664398 -0.014095800674506827 0.05026672319926541
0.5499999999999999 0.0 0.0
0.5499999999999999 0.0 0.0
0.5499999999999999 0.0 0.0
0.5499999999999999 0.0 0.0
0.5499999999999999 0.0 0.0
0.5499999999999999 0.0 0.0
0.5499999999999999 0.0 0.0
0.5499999999999999 0.0 0.0
0.5499999999999999 0.0 0.0
0.5499999999999999 0.0 0.0
0.5499999999999999 0.0 0.0
0.0 0.0 0.0
0.0 0.0 0.0
0.0 0.0 0.0
0.0 0.0 0.0
0.0 0.0 0.0
0.0 0.0 0.0
0.0 0.0 0.0
0.0 0.0 0.0
0.0 0.0 0.0
0.0 0.0 0.0
0.0 0.0 0.0
0.0551124377016396 0.011643793482555396 0.034818517167327166
0.04691357192152921 0.00424091980737208 0.01709368059990314
0.04397626595990678 0.00221510686637316 0.011224068081091913
0.0431679905589208 0.0011616277871597611 0.008128763100380128
0.04353341545688214 0.0007095122801854118 0.006318041730739257
0.0442893416031179 0.0004727252511766368 0.005114149514664423
0.045090987018659136 0.0002830674141842355 0.004246396099610502
0.04597947518229299 1.8887497060961161e-06 0.0035546703307623865
0.047289481637806684 -0.0006827449893492426 0.0026612675544740415
0.049540098770588015 -0.001745569689976861 -0.0013615131530289389
0.048593745860459635 -0.010111281753653749 -0.027611410004812802
0.10983982027693327 0.036242554228952895 0.04471441036913862
0.09549827469410505 0.015228874770538489 0.028136859442179488
0.08997374128174852 0.007608415626554739 0.01761859403940076
0.08854952455548579 0.0040849817605718335 0.012980977053611524
0.08908476029622966 0.00238795373238907 0.010302071334632162
0.09041166720576863 0.0014566332052308546 0.008685033232672347
0.09198041067805175 0.000692457168186447 0.007615517907831225
0.09375927861801527 -0.00047392190357443183 0.00663540978155573
0.09610909369009005 -0.0027577371719768313 0.004745427306409557
0.09877997064850569 -0.007616462904924796 -0.003942256033543386
0.09364412091516607 -0.02834374676305772 -0.027341728267117584
0.16681100972127258 0.0580790877588549 0.04185085608612115
0.1496914384939374 0.02640845875373517 0.029536241076588705
0.14320020823465515 0.012670147173841505 0.020199438884237517
0.142053164276755 0.006528875941362674 0.015191428520633836
0.1432540442971882 0.0034963444242332477 0.01252271223264388
0.14543327437021583 0.001806025093864249 0.011047464036792819
0.1479482320000736 0.0003571489313814226 0.01017226702341527
0.15058515795626318 -0.001911548422831043 0.00926406846521436
0.15336716747170379 -0.0063053605779808996 0.006736216835021235
0.1550442493919069 -0.016411484471291163 9.439333039822106e-05
0.14575215207584463 -0.047489562709905724 -0.015260030755072165
0.22693496395666238 0.06968180348966427 0.03142210590767096
0.20936621172426287 0.032124213689700816 0.024357598571557657
0.2036524209253785 0.014926388003807438 0.018690775125515386
0.20346721720416494 0.007212790175136623 0.015175081198459625
0.2054262806267659 0.0033980071402273915 0.013244255575918278
0.20823820072471164 0.001208099181718096 0.012289269257240026
0.2112917316491603 -0.0008119775243990914 0.011869551197166069
0.21421306025055656 -0.004051419256722726 0.011453035225020003
0.21645042819987406 -0.010504483148177323 0.01024070721644876
0.21558347349650137 -0.02516399499037518 0.007369996937742006
0.20223760557529794 -0.06264778713102538 0.0009216833494705087
0.28833124256539217 0.07051985091981469 0.016644002668295826
0.2720235892520475 0.031122637914128854 0.01584870223814784
0.26836032375592994 0.013874495690038999 0.0145745514546561
0.2693874696703196 0.006137872696878393 0.013460590290277942
0.2719390681572191 0.002300998106825858 0.0127734355737027
0.2749999999999996 -3.1670939738273937e-18 0.012535137181031487
0.27806093184278025 -0.002300998106825798 0.012773435573702745
0.28061253032967975 -0.0061378726968782694 0.01346059029027802
0.2816396762440695 -0.013874495690038988 0.014574551454656137
0.277976410747952 -0.03112263791412873 0.015848702238147855
0.26166875743460727 -0.07051985091981466 0.01664400266829575
0.3477623944247017 0.06264778713102524 0.0009216833494705134
0.3344165265034984 0.025163994990375242 0.007369996937741931
0.3335495718001257 0.010504483148177394 0.010240707216448649
0.3357869397494432 0.004051419256722776 0.011453035225019895
0.33870826835083945 0.0008119775243991119 0.011869551197166017
0.3417617992752881 -0.001208099181718093 0.01228926925723999
0.3445737193732338 -0.0033980071402273425 0.013244255575918297
0.3465327827958347 -0.007212790175136541 0.015175081198459615
0.3463475790746211 -0.014926388003807415 0.01869077512551539
0.34063378827573676 -0.03212421368970078 0.024357598571557615
0.32306503604333725 -0.06968180348966416 0.03142210590767086
0.4042478479241549 0.047489562709905564 -0.015260030755072132
0.39495575060809285 0.016411484471291177 9.439333039818506e-05
0.3966328325282959 0.006305360577980998 0.0067362168350212
0.3994148420437364 0.0019115484228310583 0.009264068465214235
0.4020517679999259 -0.00035714893138149325 0.010172267023415218
0.40456672562978374 -0.0018060250938642761 0.011047464036792763
0.40674595570281147 -0.003496344424233175 0.012522712232643887
0.4079468357232446 -0.006528875941362612 0.015191428520633774
0.40679979176534437 -0.012670147173841531 0.020199438884237475
0.4003085615060622 -0.02640845875373517 0.029536241076588646
0.3831889902787271 -0.05807908775885492 0.04185085608612107
0.4563558790848333 0.02834374676305764 -0.027341728267117546
0.45122002935149375 0.007616462904924807 -0.003942256033543469
0.45389090630990947 0.002757737171976929 0.004745427306409518
0.45624072138198424 0.0004739219035744254 0.006635409781555696
0.45801958932194775 -0.0006924571681865103 0.007615517907831258
0.4595883327942309 -0.0014566332052308815 0.008685033232672335
0.46091523970377 -0.002387953732388994 0.010302071334632141
0.46145047544451395 -0.00408498176057181 0.012980977053611483
0.46002625871825126 -0.007608415626554811 0.017618594039400727
0.4545017253058947 -0.015228874770538555 0.028136859442179557
0.4401601797230664 -0.036242554228953124 0.04471441036913881
0.50140625413954 0.010111281753653764 -0.02761141000481281
0.5004599012294114 0.0017455696899768434 -0.0013615131530289577
0.5027105183621928 0.0006827449893492618 0.0026612675544740484
0.5040205248177065 -1.888749706082655e-06 0.0035546703307624238
0.5049090129813404 -0.00028306741418425007 0.004246396099610465
0.5057106583968817 -0.0004727252511766541 0.005114149514664425
0.5064665845431174 -0.0007095122801853939 0.006318041730739231
0.5068320094410789 -0.0011616277871597657 0.008128763100380128
0.5060237340400928 -0.002215106866373196 0.011224068081091958
0.5030864280784705 -0.0042409198073720955 0.017093680599903266
0.49488756229835995 -0.011643793482555473 0.034818517167327444
0.5499999999999999 0.0 0.0
0.5499999999999999 0.0 0.0
0.5499999999999999 0.0 0.0
0.5499999999999999 0.0 0.0
0.5499999999999999 0.0 0.0
0.5499999999999999 0.0 0.0
0.5499999999999999 0.0 0.0
0.5499999999999999 0.0 0.0
0.5499999999999999 0.0 0.0
0.5499999999999999 0.0 0.0
0.5499999999999999 0.0 0.0
0.0 0.0 0.0
0.0 0.0 0.0
0.0 0.0 0.0
0.0 0.0 0.0
0.0 0.0 0.0
0.0 0.0 0.0
0.0 0.0 0.0
0.0 0.0 0.0
0.0 0.0 0.0
0.0 0.0 0.0
0.0 0.0 0.0
0.06127185466035269 0.011876127661365402 0.02279509202813996
0.051567530358825636 0.0042476934489796515 0.01221052001374828
0.048123158870770684 0.0023770707184735513 0.008260605316068667
0.046727668679467094 0.0012282963128670942 0.005863452725018965
0.04657121212002477 0.0007155094825322192 0.004450462469198922
0.04697798568170528 0.0004101844249067024 0.003602162585475804
0.04770226385120721 0.00014326748891602107 0.0030564779840000188
0.04880364209489091 -0.000275357499321151 0.0026213988617766193
0.05071008619363111 -0.001170066350880063 0.0018771746796326417
0.054046390080242986 -0.0028975295345112636 -0.0009946560186687137
0.056720421653400084 -0.010900590556625839 -0.017213942694425933
0.11594357012371256 0.03543468942420907 0.03007731914196047
0.10114622527009014 0.015427150739380597 0.019981474354353938
0.09496586364869486 0.0076965686808370005 0.012812286946046
0.09284396724857735 0.004002325859099058 0.00935309212448601
0.09280147048842982 0.002156144419236577 0.007366853074846903
0.09379996912140832 0.001074669267947042 0.0062453535187232505
0.09537367678530562 0.00012865542651850038 0.005544521136632738
0.09744469007871662 -0.0013189032130009892 0.004824216507570558
0.1002466346449677 -0.004059568591230352 0.003220833128764245
0.10353952613120446 -0.01039012495668596 -0.0029225871774171113
0.10320048493261398 -0.02960015320610823 -0.017200860440670172
0.17173127052064838 0.05605933372576096 0.028956409445273633
0.15513478408130865 0.026758508291902287 0.02106369058699314
0.1479682487406513 0.013016252054360765 0.014790592331405696
0.14595301662896734 0.0065837705233377005 0.011103442847753846
0.14646571727717234 0.003310759229309248 0.009168358983200153
0.14822138505021798 0.0013484688688954636 0.008141893374708232
0.1506051320703343 -0.00041694647997006745 0.007521633627927044
0.1533055876585718 -0.00308143316795717 0.006719078287279846
0.1560811285963591 -0.00811436379567954 0.0045425560627608205
0.1574788377055638 -0.019789856563810743 -6.279276004617237e-05
0.15246405387537426 -0.04808060934991812 -0.009416751921665852
0.22996921683181726 0.06762846736075878 0.02214213297361536
0.21368138915117427 0.03315293087280415 0.01756890827174161
0.20712799006666277 0.015908579386761254 0.013650709974153685
0.2059872345994777 0.007723255053118141 0.01116430823929895
0.20730205046862704 0.003512163625424935 0.009844372222423424
0.2097118759326631 0.000925221085804095 0.009209011191138794
0.2125139464441193 -0.0015158037446127278 0.008869487962584357
0.2151855820211199 -0.005262889331954519 0.00836115738315217
0.21696295790227016 -0.012441124188761615 0.00723477766036335
0.21536449807525637 -0.0282375645311941 0.005342812627940617
0.20537837293025366 -0.06218656713818567 0.001192431163424652
0.2885047761691731 0.06923346231071897 0.011908953094890018
0.2744582178185868 0.033309209824248856 0.01154980222481433
0.2699045829969022 0.015505357340962849 0.010565349200656
0.2701496551293666 0.007109129514418496 0.00992026469949053
0.27224030528933185 0.0027516759566108013 0.009586082999428142
0.27499999999999986 -2.630569015393888e-17 0.009473432712848572
0.27775969471066786 -0.002751675956610799 0.009586082999428121
0.27985034487063315 -0.007109129514418432 0.009920264699490589
0.2800954170030977 -0.015505357340962785 0.010565349200656025
0.27554178218141306 -0.03330920982424888 0.011549802224814372
0.26149522383082663 -0.06923346231071906 0.011908953094889946
0.34462162706974586 0.06218656713818564 0.0011924311634247575
0.3346355019247433 0.02823756453119414 0.005342812627940608
0.33303704209772944 0.012441124188761681 0.007234777660363282
0.33481441797887973 0.00526288933195467 0.008361157383152103
0.3374860535558801 0.0015158037446126652 0.008869487962584325
0.3402881240673363 -0.0009252210858041462 0.009209011191138747
0.3426979495313724 -0.0035121636254249284 0.009844372222423493
0.3440127654005218 -0.007723255053118098 0.011164308239298976
0.3428720099333367 -0.01590857938676121 0.0136507099741537
0.3363186108488253 -0.033152930872804104 0.017568908271741568
0.3200307831681824 -0.06762846736075873 0.02214213297361524
0.3975359461246253 0.04808060934991801 -0.009416751921665805
0.39252116229443584 0.019789856563810736 -6.279276004617041e-05
0.3939188714036405 0.008114363795679553 0.0045425560627608205
0.3966944123414279 0.0030814331679572737 0.006719078287279828
0.3993948679296652 0.00041694647997001335 0.007521633627927043
0.40177861494978145 -0.0013484688688955406 0.0081418933747082
0.40353428272282715 -0.0033107592293092738 0.009168358983200165
0.40404698337103223 -0.006583770523337704 0.011103442847753804
0.4020317512593483 -0.013016252054360779 0.014790592331405658
0.39486521591869106 -0.02675850829190234 0.021063690586993068
0.3782687294793514 -0.05605933372576096 0.0289564094452736
0.4467995150673856 0.029600153206108114 -0.01720086044067012
0.4464604738687951 0.010390124956685946 -0.002922587177417167
0.44975336535503185 0.0040595685912303186 0.003220833128764233
0.452555309921283 0.001318903213001068 0.004824216507570575
0.4546263232146939 -0.0001286554265185646 0.005544521136632716
0.4562000308785911 -0.0010746692679470897 0.006245353518723193
0.4571985295115697 -0.0021561444192365895 0.007366853074846861
0.45715603275142225 -0.004002325859099082 0.009353092124485934
0.4550341363513047 -0.007696568680837051 0.012812286946045932
0.44885377472990934 -0.015427150739380682 0.01998147435435398
0.434056429876287 -0.03543468942420908 0.030077319141960615
0.4932795783465993 0.010900590556625771 -0.01721394269442601
0.49595360991975646 0.0028975295345112693 -0.000994656018668743
0.4992899138063682 0.0011700663508800422 0.0018771746796326504
0.5011963579051085 0.0002753574993211691 0.002621398861776657
0.5022977361487923 -0.00014326748891601697 0.0030564779839999468
0.5030220143182941 -0.0004101844249067413 0.0036021625854757797
0.5034287878799746 -0.0007155094825322277 0.0044504624691988695
0.5032723313205323 -0.001228296312867107 0.005863452725018976
0.5018768411292287 -0.0023770707184735786 0.00826060531606866
0.4984324696411737 -0.004247693448979649 0.012210520013748333
0.4887281453396467 -0.011876127661365409 0.022795092028140108
0.5499999999999999 0.0 0.0
0.5499999999999999 0.0 0.0
0.5499999999999999 0.0 0.0
0.5499999999999999 0.0 0.0
0.5499999999999999 0.0 0.0
0.5499999999999999 0.0 0.0
0.5499999999999999 0.0 0.0
0.5499999999999999 0.0 0.0
0.5499999999999999 0.0 0.0
0.5499999999999999 0.0 0.0
0.5499999999999999 0.0 0.0
0.0 0.0 0.0
0.0 0.0 0.0
0.0 0.0 0.0
0.0 0.0 0.0
0.0 0.0 0.0
0.0 0.0 0.0
0.0 0.0 0.0
0.0 0.0 0.0
0.0 0.0 0.0
0.0 0.0 0.0
0.0 0.0 0.0
0.06446976735825743 0.011702627456477502 0.013460051579290594