# vtk DataFile Version 3.0
Some data
ASCII
DATASET UNSTRUCTURED_GRID
POINTS 1331 float
0.0 0.0 0.0
0.1 0.0 0.0
0.2 0.0 0.0
0.30000000000000004 0.0 0.0
0.4 0.0 0.0
0.5 0.0 0.0
0.6000000000000001 0.0 0.0
0.7000000000000001 0.0 0.0
0.8 0.0 0.0
0.9 0.0 0.0
1.0 0.0 0.0
0.0 0.1 0.0
0.1 0.1 0.0
0.2 0.1 0.0
0.30000000000000004 0.1 0.0
0.4 0.1 0.0
0.5 0.1 0.0
0.6000000000000001 0.1 0.0
0.7000000000000001 0.1 0.0
0.8 0.1 0.0
0.9 0.1 0.0
1.0 0.1 0.0
0.0 0.2 0.0
0.1 0.2 0.0
0.2 0.2 0.0
0.30000000000000004 0.2 0.0
0.4 0.2 0.0
0.5 0.2 0.0
0.6000000000000001 0.2 0.0
0.7000000000000001 0.2 0.0
0.8 0.2 0.0
0.9 0.2 0.0
1.0 0.2 0.0
0.0 0.30000000000000004 0.0
0.1 0.30000000000000004 0.0
0.2 0.30000000000000004 0.0
0.30000000000000004 0.30000000000000004 0.0
0.4 0.30000000000000004 0.0
0.5 0.30000000000000004 0.0
0.6000000000000001 0.30000000000000004 0.0
0.7000000000000001 0.30000000000000004 0.0
0.8 0.30000000000000004 0.0
0.9 0.30000000000000004 0.0
1.0 0.30000000000000004 0.0
0.0 0.4 0.0
0.1 0.4 0.0
0.2 0.4 0.0
0.30000000000000004 0.4 0.0
0.4 0.4 0.0
0.5 0.4 0.0
0.6000000000000001 0.4 0.0
0.7000000000000001 0.4 0.0
0.8 0.4 0.0
0.9 0.4 0.0
1.0 0.4 0.0
0.0 0.5 0.0
0.1 0.5 0.0
0.2 0.5 0.0
0.30000000000000004 0.5 0.0
0.4 0.5 0.0
0.5 0.5 0.0
0.6000000000000001 0.5 0.0
0.7000000000000001 0.5 0.0
0.8 0.5 0.0
0.9 0.5 0.0
1.0 0.5 0.0
0.0 0.6000000000000001 0.0
0.1 0.6000000000000001 0.0
0.2 0.6000000000000001 0.0
0.30000000000000004 0.6000000000000001 0.0
0.4 0.6000000000000001 0.0
0.5 0.6000000000000001 0.0
0.6000000000000001 0.6000000000000001 0.0
0.7000000000000001 0.6000000000000001 0.0
0.8 0.6000000000000001 0.0
0.9 0.6000000000000001 0.0
1.0 0.6000000000000001 0.0
0.0 0.7000000000000001 0.0
0.1 0.7000000000000001 0.0
0.2 0.7000000000000001 0.0
0.30000000000000004 0.7000000000000001 0.0
0.4 0.7000000000000001 0.0
0.5 0.7000000000000001 0.0
0.6000000000000001 0.7000000000000001 0.0
0.7000000000000001 0.7000000000000001 0.0
0.8 0.7000000000000001 0.0
0.9 0.7000000000000001 0.0
1.0 0.7000000000000001 0.0
0.0 0.8 0.0
0.1 0.8 0.0
0.2 0.8 0.0
0.30000000000000004 0.8 0.0
0.4 0.8 0.0
0.5 0.8 0.0
0.6000000000000001 0.8 0.0
0.7000000000000001 0.8 0.0
0.8 0.8 0.0
0.9 0.8 0.0
1.0 0.8 0.0
0.0 0.9 0.0
0.1 0.9 0.0
0.2 0.9 0.0
0.30000000000000004 0.9 0.0
0.4 0.9 0.0
0.5 0.9 0.0
0.6000000000000001 0.9 0.0
0.7000000000000001 0.9 0.0
0.8 0.9 0.0
0.9 0.9 0.0
1.0 0.9 0.0
0.0 1.0 0.0
0.1 1.0 0.0
0.2 1.0 0.0
0.30000000000000004 1.0 0.0
0.4 1.0 0.0
0.5 1.0 0.0
0.6000000000000001 1.0 0.0
0.7000000000000001 1.0 0.0
0.8 1.0 0.0
0.9 1.0 0.0
1.0 1.0 0.0
0.0 0.0 0.1
0.1 0.0 0.1
0.2 0.0 0.1
0.30000000000000004 0.0 0.1
0.4 0.0 0.1
0.5 0.0 0.1
0.6000000000000001 0.0 0.1
0.7000000000000001 0.0 0.1
0.8 0.0 0.1
0.9 0.0 0.1
1.0 0.0 0.1
0.0 0.1 0.1
0.1 0.1 0.1
0.2 0.1 0.1
0.30000000000000004 0.1 0.1
0.4 0.1 0.1
0.5 0.1 0.1
0.6000000000000001 0.1 0.1
0.7000000000000001 0.1 0.1
0.8 0.1 0.1
0.9 0.1 0.1
1.0 0.1 0.1
0.0 0.2 0.1
0.1 0.2 0.1
0.2 0.2 0.1
0.30000000000000004 0.2 0.1
0.4 0.2 0.1
0.5 0.2 0.1
0.6000000000000001 0.2 0.1
0.7000000000000001 0.2 0.1
0.8 0.2 0.1
0.9 0.2 0.1
1.0 0.2 0.1
0.0 0.30000000000000004 0.1
0.1 0.30000000000000004 0.1
0.2 0.30000000000000004 0.1
0.30000000000000004 0.30000000000000004 0.1
0.4 0.30000000000000004 0.1
0.5 0.30000000000000004 0.1
0.6000000000000001 0.30000000000000004 0.1
0.7000000000000001 0.30000000000000004 0.1
0.8 0.30000000000000004 0.1
0.9 0.30000000000000004 0.1
1.0 0.30000000000000004 0.1
0.0 0.4 0.1
0.1 0.4 0.1
0.2 0.4 0.1
0.30000000000000004 0.4 0.1
0.4 0.4 0.1
0.5 0.4 0.1
0.6000000000000001 0.4 0.1
0.7000000000000001 0.4 0.1
0.8 0.4 0.1
0.9 0.4 0.1
1.0 0.4 0.1
0.0 0.5 0.1
0.1 0.5 0.1
0.2 0.5 0.1
0.30000000000000004 0.5 0.1
0.4 0.5 0.1
0.5 0.5 0.1
0.6000000000000001 0.5 0.1
0.7000000000000001 0.5 0.1
0.8 0.5 0.1
0.9 0.5 0.1
1.0 0.5 0.1
0.0 0.6000000000000001 0.1
0.1 0.6000000000000001 0.1
0.2 0.6000000000000001 0.1
0.30000000000000004 0.6000000000000001 0.1
0.4 0.6000000000000001 0.1
0.5 0.6000000000000001 0.1
0.6000000000000001 0.6000000000000001 0.1
0.7000000000000001 0.6000000000000001 0.1
0.8 0.6000000000000001 0.1
0.9 0.6000000000000001 0.1
1.0 0.6000000000000001 0.1
0.0 0.7000000000000001 0.1
0.1 0.7000000000000001 0.1
0.2 0.7000000000000001 0.1
0.30000000000000004 0.7000000000000001 0.1
0.4 0.7000000000000001 0.1
0.5 0.7000000000000001 0.1
0.6000000000000001 0.7000000000000001 0.1
0.7000000000000001 0.7000000000000001 0.1
0.8 0.7000000000000001 0.1
0.9 0.7000000000000001 0.1
1.0 0.7000000000000001 0.1
0.0 0.8 0.1
0.1 0.8 0.1
0.2 0.8 0.1
0.30000000000000004 0.8 0.1
0.4 0.8 0.1
0.5 0.8 0.1
0.6000000000000001 0.8 0.1
0.7000000000000001 0.8 0.1
0.8 0.8 0.1
0.9 0.8 0.1
1.0 0.8 0.1
0.0 0.9 0.1
0.1 0.9 0.1
0.2 0.9 0.1
0.30000000000000004 0.9 0.1
0.4 0.9 0.1
0.5 0.9 0.1
0.6000000000000001 0.9 0.1
0.7000000000000001 0.9 0.1
0.8 0.9 0.1
0.9 0.9 0.1
1.0 0.9 0.1
0.0 1.0 0.1
0.1 1.0 0.1
0.2 1.0 0.1
0.30000000000000004 1.0 0.1
0.4 1.0 0.1
0.5 1.0 0.1
0.6000000000000001 1.0 0.1
0.7000000000000001 1.0 0.1
0.8 1.0 0.1
0.9 1.0 0.1
1.0 1.0 0.1
0.0 0.0 0.2
0.1 0.0 0.2
0.2 0.0 0.2
0.30000000000000004 0.0 0.2
0.4 0.0 0.2
0.5 0.0 0.2
0.6000000000000001 0.0 0.2
0.7000000000000001 0.0 0.2
0.8 0.0 0.2
0.9 0.0 0.2
1.0 0.0 0.2
0.0 0.1 0.2
0.1 0.1 0.2
0.2 0.1 0.2
0.30000000000000004 0.1 0.2
0.4 0.1 0.2
0.5 0.1 0.2
0.6000000000000001 0.1 0.2
0.7000000000000001 0.1 0.2
0.8 0.1 0.2
0.9 0.1 0.2
1.0 0.1 0.2
0.0 0.2 0.2
0.1 0.2 0.2
0.2 0.2 0.2
0.30000000000000004 0.2 0.2
0.4 0.2 0.2
0.5 0.2 0.2
0.6000000000000001 0.2 0.2
0.7000000000000001 0.2 0.2
0.8 0.2 0.2
0.9 0.2 0.2
1.0 0.2 0.2
0.0 0.30000000000000004 0.2
0.1 0.30000000000000004 0.2
0.2 0.30000000000000004 0.2
0.30000000000000004 0.30000000000000004 0.2
0.4 0.30000000000000004 0.2
0.5 0.30000000000000004 0.2
0.6000000000000001 0.30000000000000004 0.2
0.7000000000000001 0.30000000000000004 0.2
0.8 0.30000000000000004 0.2
0.9 0.30000000000000004 0.2
1.0 0.30000000000000004 0.2
0.0 0.4 0.2
0.1 0.4 0.2
0.2 0.4 0.2
0.30000000000000004 0.4 0.2
0.4 0.4 0.2
0.5 0.4 0.2
0.6000000000000001 0.4 0.2
0.7000000000000001 0.4 0.2
0.8 0.4 0.2
0.9 0.4 0.2
1.0 0.4 0.2
0.0 0.5 0.2
0.1 0.5 0.2
0.2 0.5 0.2
0.30000000000000004 0.5 0.2
0.4 0.5 0.2
0.5 0.5 0.2
0.6000000000000001 0.5 0.2
0.7000000000000001 0.5 0.2
0.8 0.5 0.2
0.9 0.5 0.2
1.0 0.5 0.2
0.0 0.6000000000000001 0.2
0.1 0.6000000000000001 0.2
0.2 0.6000000000000001 0.2
0.30000000000000004 0.6000000000000001 0.2
0.4 0.6000000000000001 0.2
0.5 0.6000000000000001 0.2
0.6000000000000001 0.6000000000000001 0.2
0.7000000000000001 0.6000000000000001 0.2
0.8 0.6000000000000001 0.2
0.9 0.6000000000000001 0.2
1.0 0.6000000000000001 0.2
0.0 0.7000000000000001 0.2
0.1 0.7000000000000001 0.2
0.2 0.7000000000000001 0.2
0.30000000000000004 0.7000000000000001 0.2
0.4 0.7000000000000001 0.2
0.5 0.7000000000000001 0.2
0.6000000000000001 0.7000000000000001 0.2
0.7000000000000001 0.7000000000000001 0.2
0.8 0.7000000000000001 0.2
0.9 0.7000000000000001 0.2
1.0 0.7000000000000001 0.2
0.0 0.8 0.2
0.1 0.8 0.2
0.2 0.8 0.2
0.30000000000000004 0.8 0.2
0.4 0.8 0.2
0.5 0.8 0.2
0.6000000000000001 0.8 0.2
0.7000000000000001 0.8 0.2
0.8 0.8 0.2
0.9 0.8 0.2
1.0 0.8 0.2
0.0 0.9 0.2
0.1 0.9 0.2
0.2 0.9 0.2
0.30000000000000004 0.9 0.2
0.4 0.9 0.2
0.5 0.9 0.2
0.6000000000000001 0.9 0.2
0.7000000000000001 0.9 0.2
0.8 0.9 0.2
0.9 0.9 0.2
1.0 0.9 0.2
0.0 1.0 0.2
0.1 1.0 0.2
0.2 1.0 0.2
0.30000000000000004 1.0 0.2
0.4 1.0 0.2
0.5 1.0 0.2
0.6000000000000001 1.0 0.2
0.7000000000000001 1.0 0.2
0.8 1.0 0.2
0.9 1.0 0.2
1.0 1.0 0.2
0.0 0.0 0.30000000000000004
0.1 0.0 0.30000000000000004
0.2 0.0 0.30000000000000004
0.30000000000000004 0.0 0.30000000000000004
0.4 0.0 0.30000000000000004
0.5 0.0 0.30000000000000004
0.6000000000000001 0.0 0.30000000000000004
0.7000000000000001 0.0 0.30000000000000004
0.8 0.0 0.30000000000000004
0.9 0.0 0.30000000000000004
1.0 0.0 0.30000000000000004
0.0 0.1 0.30000000000000004
0.1 0.1 0.30000000000000004
0.2 0.1 0.30000000000000004
0.30000000000000004 0.1 0.30000000000000004
0.4 0.1 0.30000000000000004
0.5 0.1 0.30000000000000004
0.6000000000000001 0.1 0.30000000000000004
0.7000000000000001 0.1 0.30000000000000004
0.8 0.1 0.30000000000000004
0.9 0.1 0.30000000000000004
1.0 0.1 0.30000000000000004
0.0 0.2 0.30000000000000004
0.1 0.2 0.30000000000000004
0.2 0.2 0.30000000000000004
0.30000000000000004 0.2 0.30000000000000004
0.4 0.2 0.30000000000000004
0.5 0.2 0.30000000000000004
0.6000000000000001 0.2 0.30000000000000004
0.7000000000000001 0.2 0.30000000000000004
0.8 0.2 0.30000000000000004
0.9 0.2 0.30000000000000004
1.0 0.2 0.30000000000000004
0.0 0.30000000000000004 0.30000000000000004
0.1 0.30000000000000004 0.30000000000000004
0.2 0.30000000000000004 0.30000000000000004
0.30000000000000004 0.30000000000000004 0.30000000000000004
0.4 0.30000000000000004 0.30000000000000004
0.5 0.30000000000000004 0.30000000000000004
0.6000000000000001 0.30000000000000004 0.30000000000000004
0.7000000000000001 0.30000000000000004 0.30000000000000004
0.8 0.30000000000000004 0.30000000000000004
0.9 0.30000000000000004 0.30000000000000004
1.0 0.30000000000000004 0.30000000000000004
0.0 0.4 0.30000000000000004
0.1 0.4 0.30000000000000004
0.2 0.4 0.30000000000000004
0.30000000000000004 0.4 0.30000000000000004
0.4 0.4 0.30000000000000004
0.5 0.4 0.30000000000000004
0.6000000000000001 0.4 0.30000000000000004
0.7000000000000001 0.4 0.30000000000000004
0.8 0.4 0.30000000000000004
0.9 0.4 0.30000000000000004
1.0 0.4 0.30000000000000004
0.0 0.5 0.30000000000000004
0.1 0.5 0.30000000000000004
0.2 0.5 0.30000000000000004
0.30000000000000004 0.5 0.30000000000000004
0.4 0.5 0.30000000000000004
0.5 0.5 0.30000000000000004
0.6000000000000001 0.5 0.30000000000000004
0.7000000000000001 0.5 0.30000000000000004
0.8 0.5 0.30000000000000004
0.9 0.5 0.30000000000000004
1.0 0.5 0.30000000000000004
0.0 0.6000000000000001 0.30000000000000004
0.1 0.6000000000000001 0.30000000000000004
0.2 0.6000000000000001 0.30000000000000004
0.30000000000000004 0.6000000000000001 0.30000000000000004
[...]
POINT_DATA 1331
VECTORS Disp float
0.0 0.0 0.0
0.0 0.0 0.0
0.0 0.0 0.0
0.0 0.0 0.0
0.0 0.0 0.0
0.0 0.0 0.0
0.0 0.0 0.0
0.0 0.0 0.0
0.0 0.0 0.0
0.0 0.0 0.0
0.0 0.0 0.0
0.06127716884243142 0.015494607990498354 0.061259336676478954
0.05017155112548792 0.007129373349024963 0.029082689357452
0.04735119857823948 0.004007784948134276 0.019948878386031595
0.04816302023197891 0.0026039055906352847 0.015910333388206375
0.05058907103466894 0.00199993766805856 0.013865732354037444
0.05326657088525194 0.0017336324120392882 0.012484876817290776
0.055554615803918864 0.0015344574262995585 0.011525672856149938
0.05746011981361144 0.0013055166381415538 0.010920961607523998
0.05902461153915242 0.0008307427000634858 0.009664625897268206
0.060617927521466455 0.0015831772907895325 0.00434215939121975
0.0530479729909716 -0.0036607448416720993 -0.0397970868704771
0.13461941784324857 0.044373486693705666 0.08085502757354507
0.11567624630104764 0.01914913843473835 0.04923113120757054
0.11105205249793018 0.010017714245954481 0.03226100701532031
0.11235859748828338 0.005903233863681132 0.025548688724430498
0.11586516615292922 0.004257269144267995 0.02209362469580464
0.11955811126363648 0.0035663381956645567 0.020141860473306235
0.12259547683590363 0.0031378369731954337 0.01898077380482441
0.12481929345563836 0.0025516570807600863 0.017961084372545295
0.12628059092929972 0.0014004196127375356 0.015629736381411605
0.1270542684787629 0.000654957517531862 0.002306272576256798
0.11009871917351281 -0.01699522169113154 -0.03944971614154648
0.2116357153709498 0.0677040121930167 0.0762024697203276
0.18859903497024383 0.029011320397497143 0.0540141554591373
0.18363181636888581 0.013818665011516962 0.03835713692038574
0.18585652973197572 0.0075432578092722614 0.030999459888617985
0.19052201851888373 0.005020089639970095 0.027458206617866056
0.19561017330963776 0.003962243601246541 0.02574592909151093
0.2004064598633796 0.0032747647751801175 0.024966974280840645
0.2047572127951387 0.002158148163126757 0.02429595192490538
0.20870694419443903 -0.00013907355450323695 0.02137822572566836
0.2104841899587648 -0.0059600452198866295 0.009789282931845129
0.18853512765788089 -0.03585834305319585 -0.01956217919230355
0.2956275404074306 0.07544171661686462 0.059081684693471984
0.2706905191922564 0.03120521725227402 0.04758658378241124
0.26705928545419344 0.013632306064755826 0.03831764920682873
0.2706229061082118 0.0066481078220333775 0.032940165990493736
0.2763602076166748 0.003838574444540538 0.030260440082930048
0.28256326232789264 0.002573399705854027 0.029116166089118874
0.2887089218508466 0.0015582407909104877 0.028866215812681523
0.29463119794698445 -0.00028077989380440504 0.028867426506497085
0.29997230100355043 -0.00452769669684451 0.027612300709797227
0.30095644899681073 -0.01614927420660538 0.022012112987619802
0.276632341615325 -0.05520392506419384 0.008155207419171837
0.38367293955451637 0.06971994727125727 0.03520123645635122
0.358551609750587 0.025824706715950944 0.035338476645601295
0.35735268376143964 0.009892961878155913 0.03371880192774527
0.3622101018821477 0.0037519224230109795 0.031732724256364885
0.3684542916919304 0.001246463556384671 0.030476737696792582
0.37500000000000167 -3.7911572869168535e-17 0.030055714171848748
0.3815457083080731 -0.0012464635563845534 0.030476737696792676
0.38778989811785586 -0.0037519224230107913 0.03173272425636505
0.3926473162385642 -0.009892961878155596 0.03371880192774532
0.391448390249417 -0.025824706715950566 0.03533847664560111
0.36632706044548774 -0.06971994727125685 0.035201236456350884
0.47336765838467937 0.055203925064193894 0.008155207419171993
0.4490435510031939 0.016149274206605554 0.022012112987619528
0.4500276989964542 0.00452769669684475 0.02761230070979698
0.45536880205302027 0.0002807798938045881 0.028867426506496718
0.4612910781491579 -0.0015582407909104574 0.028866215812681145
0.4674367376721117 -0.002573399705854112 0.02911616608911853
0.4736397923833297 -0.0038385744445403823 0.030260440082929645
0.4793770938917925 -0.006648107822033209 0.03294016599049323
0.48294071454581067 -0.013632306064755672 0.038317649206828196
0.479309480807748 -0.031205217252273626 0.04758658378241068
0.4543724595925736 -0.07544171661686416 0.059081684693471234
0.5614648723421231 0.03585834305319575 -0.019562179192303682
0.5395158100412395 0.0059600452198866815 0.009789282931844554
0.5412930558055654 0.0001390735545034668 0.02137822572566774
0.5452427872048656 -0.0021581481631267763 0.024295951924904528
0.5495935401366249 -0.0032747647751801344 0.02496697428083995
0.5543898266903665 -0.00396224360124657 0.025745929091510356
0.5594779814811206 -0.005020089639970027 0.02745820661786551
0.5641434702680287 -0.007543257809272137 0.030999459888617242
0.5663681836311184 -0.013818665011516946 0.038357136920385025
0.5614009650297607 -0.029011320397496872 0.05401415545913652
0.5383642846290547 -0.06770401219301639 0.07620246972032681
0.6399012808264903 0.016995221691131383 -0.03944971614154674
0.6229457315212406 -0.0006549575175319017 0.00230627257625606
0.6237194090707039 -0.0014004196127373727 0.015629736381410683
0.6251807065443651 -0.002551657080760246 0.01796108437254435
0.6274045231640997 -0.003137836973195478 0.01898077380482376
0.6304418887363669 -0.0035663381956645077 0.0201418604733056
0.634134833847074 -0.004257269144267993 0.022093624695803997
0.6376414025117201 -0.005903233863681086 0.02554868872442982
0.6389479475020732 -0.010017714245954575 0.032261007015319663
0.634323753698956 -0.019149138434738176 0.04923113120756989
0.6153805821567554 -0.0443734866937054 0.08085502757354428
0.6969520270090301 0.003660744841671971 -0.0397970868704776
0.6893820724785352 -0.0015831772907895908 0.004342159391218939
0.6909753884608492 -0.0008307427000634397 0.009664625897267281
0.6925398801863899 -0.0013055166381416435 0.010920961607523334
0.6944453841960825 -0.0015344574262996613 0.011525672856149416
0.6967334291147496 -0.0017336324120392826 0.012484876817290325
0.6994109289653325 -0.001999937668058597 0.013865732354036946
0.7018369797680225 -0.002603905590635291 0.015910333388205918
0.702648801421762 -0.0040077849481343596 0.019948878386031255
0.6998284488745137 -0.00712937334902484 0.029082689357451633
0.6887228311575707 -0.015494607990498144 0.061259336676478086
0.7500000000000001 0.0 0.0
0.7500000000000001 0.0 0.0
0.7500000000000001 0.0 0.0
0.7500000000000001 0.0 0.0
0.7500000000000001 0.0 0.0
0.7500000000000001 0.0 0.0
0.7500000000000001 0.0 0.0
0.7500000000000001 0.0 0.0
0.7500000000000001 0.0 0.0
0.7500000000000001 0.0 0.0
0.7500000000000001 0.0 0.0
0.0 0.0 0.0
0.0 0.0 0.0
0.0 0.0 0.0
0.0 0.0 0.0
0.0 0.0 0.0
0.0 0.0 0.0
0.0 0.0 0.0
0.0 0.0 0.0
0.0 0.0 0.0
0.0 0.0 0.0
0.0 0.0 0.0
0.06940993921831956 0.01234121975511219 0.043255759193824246
0.06027941871287196 0.0044499927305932056 0.02085971603650462
0.057712885320215034 0.0022514551990591683 0.014178125512174887
0.05752721197448011 0.0011943807297824488 0.0109596264059692
0.05870692416647177 0.0007660578346599562 0.009363791448386567
0.06043152035572797 0.0005393401293728547 0.008506984777317905
0.06236602520068853 0.00031699594443327153 0.008072154056058767
0.06456720596941813 -2.464057203569966e-05 0.007860790774964568
0.06715260960541061 -0.0008265197505444501 0.007235307463132337
0.07041557734846049 -0.001789299325786568 0.002571795391331861
0.06780656795236369 -0.00973812605251051 -0.030364053094319415
0.14621950491731375 0.03928967738410762 0.05850694446101204
0.12780305492755678 0.01579014550210055 0.03665955268852705
0.12202082255515559 0.007908112198530416 0.023976313964519533
0.12126884246982447 0.0043758148241963704 0.018981602121649503
0.12289451053423914 0.0027489640876948583 0.016530403413870264
0.12555697310356087 0.0017870423714630719 0.01540878398616987
0.1286745032082386 0.0008680204535184765 0.014922664747432222
0.13213244714933214 -0.0005150374550931347 0.014448943037329626
0.13587607743794733 -0.0030445770398099927 0.012583692508465198
0.1388842206938586 -0.00751666110333672 0.0014350932049020785
0.12842330185101772 -0.02793847073157081 -0.03018065422436721
0.22464004259436654 0.0647640630670834 0.056498517621237004
0.2007259164364753 0.028146749854612182 0.041047379687083545
0.19332194372857464 0.013569693887467064 0.029568495423139485
0.19313144085411965 0.007330811404116694 0.024043964339481624
0.19597937479378302 0.004255542973927884 0.02159087247000997
0.20016571979305597 0.0023634157623528837 0.020591480788493845
0.20489623818997124 0.0005604650285160684 0.02022222015704566
0.20976290772395073 -0.002125882932139375 0.01965317217025707
0.21438243044412914 -0.006812375659990182 0.016767240682017955
0.2163324739568792 -0.016680134479917563 0.007487455912259998
0.19978079594419249 -0.048611829058357314 -0.0154620830361995
0.30696484683285874 0.07784983443851035 0.044780356683545255
0.28081867161806695 0.03466273662543036 0.036876492979156496
0.2739702963496451 0.016242941538957403 0.03012288088410734
0.2752354929000776 0.008283048939662278 0.026290565182127204
0.2795059665709557 0.004228944292351455 0.02452834719968628
0.28500165693838614 0.001633926650904037 0.023878614878898828
0.29086672988564155 -0.0008898768939096945 0.023732291764923343
0.2964415210408615 -0.004627912758687334 0.02341402121521852
0.3007213115061371 -0.011428506198743013 0.02180093936445311
0.29970251944058296 -0.026532370820542165 0.017310514100170316
0.27793822631624454 -0.06688807737787676 0.005912061680835867
0.39054470138309316 0.07761059990216147 0.0267719359517913
0.3652504869384222 0.033461156359215545 0.02772388306488775
0.360790914266464 0.01516784862477995 0.02672615854384349
0.3636888459033061 0.007076339456884487 0.025709660456951892
0.368950342917773 0.0028250836187517243 0.02510639497495272
0.37500000000000183 1.6325043371751575e-16 0.024896460848981516
0.3810496570822307 -0.002825083618751339 0.025106394974952737
0.3863111540966979 -0.007076339456883916 0.02570966045695202
0.3892090857335399 -0.01516784862477948 0.026726158543843453
0.38474951306158195 -0.03346115635921489 0.027723883064887562
0.359455298616911 -0.07761059990216097 0.026771935951790924
0.4720617736837598 0.06688807737787694 0.005912061680836124
0.45029748055942176 0.026532370820542665 0.017310514100170118
0.4492786884938674 0.011428506198743414 0.0218009393644528
0.4535584789591429 0.004627912758687722 0.0234140212152182
0.45913327011436295 0.0008898768939099624 0.02373229176492301
0.46499834306161836 -0.0016339266509037252 0.023878614878898512
0.47049403342904866 -0.004228944292351053 0.02452834719968602
0.4747645070999268 -0.00828304893966172 0.02629056518212686
0.4760297036503592 -0.016242941538956945 0.03012288088410698
0.4691813283819374 -0.034662736625429943 0.03687649297915601
0.44303515316714565 -0.07784983443850996 0.04478035668354459
0.5502192040558116 0.048611829058357314 -0.015462083036199508
0.5336675260431254 0.016680134479917813 0.007487455912259574
0.5356175695558757 0.006812375659990565 0.016767240682017393
0.5402370922760538 0.0021258829321395985 0.019653172170256385
0.5451037618100331 -0.0005604650285159876 0.020222220157045046
0.5498342802069485 -0.0023634157623525815 0.02059148078849326
0.5540206252062214 -0.00425554297392746 0.021590872470009403
0.5568685591458848 -0.007330811404116314 0.024043964339480996
0.5566780562714299 -0.013569693887466781 0.029568495423138923
0.5492740835635291 -0.028146749854611998 0.041047379687082865
0.5253599574056379 -0.06476406306708325 0.05649851762123633
0.6215766981489852 0.02793847073157084 -0.030180654224367446
0.6111157793061448 0.007516661103336878 0.0014350932049013738
0.6141239225620562 0.003044577039810308 0.012583692508464403
0.6178675528506713 0.000515037455093265 0.014448943037328875
0.6213254967917647 -0.0008680204535184645 0.014922664747431617
0.6244430268964425 -0.0017870423714629337 0.015408783986169256
0.6271054894657646 -0.002748964087694513 0.01653040341386967
0.6287311575301792 -0.004375814824196139 0.01898160212164888
0.6279791774448481 -0.007908112198530345 0.023976313964518926
0.6221969450724469 -0.01579014550210053 0.036659552688526525
0.6037804950826902 -0.039289677384107546 0.05850694446101132
0.682193432047638 0.009738126052510468 -0.03036405309431967
0.6795844226515413 0.0017892993257866436 0.002571795391331228
0.6828473903945912 0.0008265197505445836 0.007235307463131701
0.6854327940305835 2.4640572035721645e-05 0.007860790774963999
0.6876339747993131 -0.00031699594443328324 0.008072154056058245
0.6895684796442736 -0.0005393401293728454 0.008506984777317449
0.69129307583353 -0.0007660578346598038 0.009363791448386114
0.6924727880255217 -0.0011943807297823735 0.01095962640596881
0.6922871146797867 -0.002251455199059147 0.014178125512174596
0.6897205812871299 -0.004449992730593194 0.020859716036504338
0.6805900607816824 -0.012341219755112112 0.04325575919382349
0.7500000000000001 0.0 0.0
0.7500000000000001 0.0 0.0
0.7500000000000001 0.0 0.0
0.7500000000000001 0.0 0.0
0.7500000000000001 0.0 0.0
0.7500000000000001 0.0 0.0
0.7500000000000001 0.0 0.0
0.7500000000000001 0.0 0.0
0.7500000000000001 0.0 0.0
0.7500000000000001 0.0 0.0
0.7500000000000001 0.0 0.0
0.0 0.0 0.0
0.0 0.0 0.0
0.0 0.0 0.0
0.0 0.0 0.0
0.0 0.0 0.0
0.0 0.0 0.0
0.0 0.0 0.0
0.0 0.0 0.0
0.0 0.0 0.0
0.0 0.0 0.0
0.0 0.0 0.0
0.0763298695641213 0.012496246173703013 0.029128727904061836
0.06593508002433707 0.004315029486105211 0.014932147238565069
0.06301382251556789 0.0023562219152284056 0.010411324407311275
0.062268372933371355 0.0012018261169824363 0.007897485952856154
0.06291514458248741 0.0007087502836240305 0.006584094777106893
0.06422160336996414 0.0003933269380239648 0.005959754228460511
0.06597591144825968 7.32271208400713e-05 0.005725469529403099
0.06827675615041379 -0.00044140767096880823 0.00568090623257978
0.07144712087022935 -0.0013986669411044834 0.0053678695416853675
0.07566744607611318 -0.0028891363124122498 0.002191169160023397
0.0765330552128018 -0.0102724703289412 -0.019774871874419536
0.15309421984191493 0.03807725220248581 0.0401602189302709
0.13490833053761103 0.015766785977457204 0.02633469860933975
0.12855037855366852 0.007788518186916074 0.01744958686324012
0.1270576344951494 0.004083066128940852 0.013720495307040557
0.12806013613465764 0.0022828303635023597 0.011898225347949515
0.13034453744412441 0.001150252232151001 0.011156199459179896
0.1334082869286304 2.7425614945533503e-05 0.010921992894437883
0.13708927447680497 -0.0016824756064722933 0.010680910328852305
0.14140510245669402 -0.004566124372982278 0.009310887952991915
0.1453180361523112 -0.010358506038206917 0.0014326520203226355
0.14100523562663755 -0.02933932119004589 -0.019515256600886356
0.2298139942233785 0.06193025938960547 0.039640422991601004
0.2074804389420455 0.028329895165071273 0.029495594022540702
0.19935427364994804 0.01363484557167841 0.021651495349302927
0.19819683222602585 0.007085356500619468 0.017571322452858834
0.2002717992702662 0.003770166470445144 0.015840035852592825
0.20394658642376323 0.0016248608403523466 0.015207855579133995
0.20844402623049577 -0.0004800981849424339 0.015000534942293463
0.21323970930607683 -0.003534464838481149 0.014493408570400473
0.21779634266729447 -0.008748316332879057 0.012087458144734853
0.219636572608358 -0.020077082670085525 0.005722005364009778
0.20911340487622587 -0.04938687144427494 -0.00929151861455567
0.30953354555158585 0.07485081334947329 0.03214562242034833
0.2862148981183355 0.035513987532745095 0.026746302741484443
0.27838305733900587 0.01692141190545642 0.02201741032577017
0.27849293173871964 0.008500894167588542 0.019342508186028364
0.28196912397416396 0.004109556301454752 0.018206804109193515
0.2869297032766001 0.0011738479915027794 0.017836729341902623
0.2924028480414031 -0.001729110577447166 0.017707681282178252
0.2975754776069683 -0.005886922090890827 0.017234317637274864
0.3012176852098153 -0.01331579906631827 0.01575770138044423
0.29947755989186997 -0.029469632220872087 0.012809277133337339
0.28284472033041524 -0.06622271045656543 0.0053408771642139705
0.38967613287266567 0.07560874336644492 0.0197843155314397
0.36836059970341 0.0354477260682741 0.02034903308442827
0.36288085646403145 0.01658410849128269 0.019480067118330557
0.36475652645766293 0.00789856821830981 0.01897457711572599
0.3693830721883912 0.0032172594387608854 0.01876904422348269
0.37500000000000216 2.1503940065791416e-16 0.018698439412011703
0.3806169278116131 -0.0032172594387604803 0.018769044223482637
0.3852434735423416 -0.00789856821830916 0.01897457711572601
0.3871191435359732 -0.016584108491282112 0.01948006711833046
0.3816394002965948 -0.035447726068273525 0.020349033084428095
0.36032386712733905 -0.0756087433664445 0.019784315531439275
0.46715527966958914 0.06622271045656597 0.005340877164214205
0.4505224401081347 0.029469632220872826 0.012809277133337259
0.4487823147901891 0.013315799066318862 0.015757701380444
0.4524245223930361 0.0058869220908914464 0.017234317637274597
0.45759715195860107 0.0017291105774475287 0.017707681282178
0.463070296723404 -0.0011738479915024138 0.017836729341902377
0.46803087602584026 -0.004109556301454325 0.018206804109193345
0.47150706826128475 -0.008500894167587945 0.019342508186028156
0.4716169426609984 -0.016921411905455847 0.022017410325769895
0.46378510188166894 -0.0355139875327446 0.026746302741484
0.4404664544484187 -0.07485081334947283 0.032145622420347734
0.5408865951237783 0.0493868714442753 -0.009291518614555733
0.5303634273916467 0.020077082670086087 0.005722005364009479
0.5322036573327102 0.008748316332879513 0.012087458144734428
0.5367602906939278 0.0035344648384816376 0.014493408570399994
0.5415559737695086 0.0004800981849426991 0.015000534942293054
0.546053413576241 -0.0016248608403521235 0.015207855579133485
0.5497282007297382 -0.0037701664704447883 0.015840035852592315
0.5518031677739785 -0.007085356500619013 0.017571322452858314
0.5506457263500563 -0.013634845571677996 0.021651495349302458
0.5425195610579588 -0.028329895165071138 0.029495594022540168
0.5201860057766259 -0.061930259389605134 0.03964042299160049
0.6089947643733655 0.02933932119004616 -0.019515256600886502
0.6046819638476925 0.01035850603820731 0.001432652020322079
0.6085948975433095 0.0045661243729825845 0.00931088795299132
0.6129107255231986 0.0016824756064726368 0.010680910328851757
0.616591713071373 -2.742561494539646e-05 0.010921992894437377
0.619655462555879 -0.0011502522321507923 0.011156199459179308
0.6219398638653457 -0.0022828303635022366 0.011898225347949008
0.6229423655048543 -0.0040830661289405455 0.013720495307040038
0.621449621446335 -0.007788518186915874 0.01744958686323968
0.6150916694623925 -0.01576678597745722 0.02633469860933927
0.5969057801580887 -0.03807725220248571 0.04016021893027031
0.6734669447871992 0.010272470328941309 -0.019774871874419817
0.6743325539238882 0.0028891363124124896 0.0021911691600228402
0.6785528791297721 0.0013986669411046094 0.005367869541684914
0.6817232438495878 0.0004414076709689637 0.005680906232579438
0.6840240885517418 -7.322712084003658e-05 0.005725469529402641
0.6857783966300374 -0.0003933269380238645 0.005959754228460103
0.6870848554175142 -0.0007087502836240207 0.006584094777106518
0.6877316270666302 -0.0012018261169823203 0.007897485952855882
0.6869861774844338 -0.0023562219152283344 0.010411324407310995
0.6840649199756647 -0.004315029486105194 0.014932147238564845
0.6736701304358803 -0.012496246173702902 0.029128727904061097
0.7500000000000001 0.0 0.0
0.7500000000000001 0.0 0.0
0.7500000000000001 0.0 0.0
0.7500000000000001 0.0 0.0
0.7500000000000001 0.0 0.0
0.7500000000000001 0.0 0.0
0.7500000000000001 0.0 0.0
0.7500000000000001 0.0 0.0
0.7500000000000001 0.0 0.0
0.7500000000000001 0.0 0.0
0.7500000000000001 0.0 0.0
0.0 0.0 0.0
0.0 0.0 0.0
0.0 0.0 0.0
0.0 0.0 0.0
0.0 0.0 0.0
0.0 0.0 0.0
0.0 0.0 0.0
0.0 0.0 0.0
0.0 0.0 0.0
0.0 0.0 0.0
0.0 0.0 0.0
0.07993106994222433 0.012250521515847688 0.017640838074913727
0.06860442540182833 0.004001203614015291 0.009657489244023895
0.06576525419997328 0.002287405925162627 0.0069605447712381766