# vtk DataFile Version 3.0
Some data
ASCII
DATASET UNSTRUCTURED_GRID
POINTS 1331 float
0.0 0.0 0.0
0.1 0.0 0.0
0.2 0.0 0.0
0.30000000000000004 0.0 0.0
0.4 0.0 0.0
0.5 0.0 0.0
0.6000000000000001 0.0 0.0
0.7000000000000001 0.0 0.0
0.8 0.0 0.0
0.9 0.0 0.0
1.0 0.0 0.0
0.0 0.1 0.0
0.1 0.1 0.0
0.2 0.1 0.0
0.30000000000000004 0.1 0.0
0.4 0.1 0.0
0.5 0.1 0.0
0.6000000000000001 0.1 0.0
0.7000000000000001 0.1 0.0
0.8 0.1 0.0
0.9 0.1 0.0
1.0 0.1 0.0
0.0 0.2 0.0
0.1 0.2 0.0
0.2 0.2 0.0
0.30000000000000004 0.2 0.0
0.4 0.2 0.0
0.5 0.2 0.0
0.6000000000000001 0.2 0.0
0.7000000000000001 0.2 0.0
0.8 0.2 0.0
0.9 0.2 0.0
1.0 0.2 0.0
0.0 0.30000000000000004 0.0
0.1 0.30000000000000004 0.0
0.2 0.30000000000000004 0.0
0.30000000000000004 0.30000000000000004 0.0
0.4 0.30000000000000004 0.0
0.5 0.30000000000000004 0.0
0.6000000000000001 0.30000000000000004 0.0
0.7000000000000001 0.30000000000000004 0.0
0.8 0.30000000000000004 0.0
0.9 0.30000000000000004 0.0
1.0 0.30000000000000004 0.0
0.0 0.4 0.0
0.1 0.4 0.0
0.2 0.4 0.0
0.30000000000000004 0.4 0.0
0.4 0.4 0.0
0.5 0.4 0.0
0.6000000000000001 0.4 0.0
0.7000000000000001 0.4 0.0
0.8 0.4 0.0
0.9 0.4 0.0
1.0 0.4 0.0
0.0 0.5 0.0
0.1 0.5 0.0
0.2 0.5 0.0
0.30000000000000004 0.5 0.0
0.4 0.5 0.0
0.5 0.5 0.0
0.6000000000000001 0.5 0.0
0.7000000000000001 0.5 0.0
0.8 0.5 0.0
0.9 0.5 0.0
1.0 0.5 0.0
0.0 0.6000000000000001 0.0
0.1 0.6000000000000001 0.0
0.2 0.6000000000000001 0.0
0.30000000000000004 0.6000000000000001 0.0
0.4 0.6000000000000001 0.0
0.5 0.6000000000000001 0.0
0.6000000000000001 0.6000000000000001 0.0
0.7000000000000001 0.6000000000000001 0.0
0.8 0.6000000000000001 0.0
0.9 0.6000000000000001 0.0
1.0 0.6000000000000001 0.0
0.0 0.7000000000000001 0.0
0.1 0.7000000000000001 0.0
0.2 0.7000000000000001 0.0
0.30000000000000004 0.7000000000000001 0.0
0.4 0.7000000000000001 0.0
0.5 0.7000000000000001 0.0
0.6000000000000001 0.7000000000000001 0.0
0.7000000000000001 0.7000000000000001 0.0
0.8 0.7000000000000001 0.0
0.9 0.7000000000000001 0.0
1.0 0.7000000000000001 0.0
0.0 0.8 0.0
0.1 0.8 0.0
0.2 0.8 0.0
0.30000000000000004 0.8 0.0
0.4 0.8 0.0
0.5 0.8 0.0
0.6000000000000001 0.8 0.0
0.7000000000000001 0.8 0.0
0.8 0.8 0.0
0.9 0.8 0.0
1.0 0.8 0.0
0.0 0.9 0.0
0.1 0.9 0.0
0.2 0.9 0.0
0.30000000000000004 0.9 0.0
0.4 0.9 0.0
0.5 0.9 0.0
0.6000000000000001 0.9 0.0
0.7000000000000001 0.9 0.0
0.8 0.9 0.0
0.9 0.9 0.0
1.0 0.9 0.0
0.0 1.0 0.0
0.1 1.0 0.0
0.2 1.0 0.0
0.30000000000000004 1.0 0.0
0.4 1.0 0.0
0.5 1.0 0.0
0.6000000000000001 1.0 0.0
0.7000000000000001 1.0 0.0
0.8 1.0 0.0
0.9 1.0 0.0
1.0 1.0 0.0
0.0 0.0 0.1
0.1 0.0 0.1
0.2 0.0 0.1
0.30000000000000004 0.0 0.1
0.4 0.0 0.1
0.5 0.0 0.1
0.6000000000000001 0.0 0.1
0.7000000000000001 0.0 0.1
0.8 0.0 0.1
0.9 0.0 0.1
1.0 0.0 0.1
0.0 0.1 0.1
0.1 0.1 0.1
0.2 0.1 0.1
0.30000000000000004 0.1 0.1
0.4 0.1 0.1
0.5 0.1 0.1
0.6000000000000001 0.1 0.1
0.7000000000000001 0.1 0.1
0.8 0.1 0.1
0.9 0.1 0.1
1.0 0.1 0.1
0.0 0.2 0.1
0.1 0.2 0.1
0.2 0.2 0.1
0.30000000000000004 0.2 0.1
0.4 0.2 0.1
0.5 0.2 0.1
0.6000000000000001 0.2 0.1
0.7000000000000001 0.2 0.1
0.8 0.2 0.1
0.9 0.2 0.1
1.0 0.2 0.1
0.0 0.30000000000000004 0.1
0.1 0.30000000000000004 0.1
0.2 0.30000000000000004 0.1
0.30000000000000004 0.30000000000000004 0.1
0.4 0.30000000000000004 0.1
0.5 0.30000000000000004 0.1
0.6000000000000001 0.30000000000000004 0.1
0.7000000000000001 0.30000000000000004 0.1
0.8 0.30000000000000004 0.1
0.9 0.30000000000000004 0.1
1.0 0.30000000000000004 0.1
0.0 0.4 0.1
0.1 0.4 0.1
0.2 0.4 0.1
0.30000000000000004 0.4 0.1
0.4 0.4 0.1
0.5 0.4 0.1
0.6000000000000001 0.4 0.1
0.7000000000000001 0.4 0.1
0.8 0.4 0.1
0.9 0.4 0.1
1.0 0.4 0.1
0.0 0.5 0.1
0.1 0.5 0.1
0.2 0.5 0.1
0.30000000000000004 0.5 0.1
0.4 0.5 0.1
0.5 0.5 0.1
0.6000000000000001 0.5 0.1
0.7000000000000001 0.5 0.1
0.8 0.5 0.1
0.9 0.5 0.1
1.0 0.5 0.1
0.0 0.6000000000000001 0.1
0.1 0.6000000000000001 0.1
0.2 0.6000000000000001 0.1
0.30000000000000004 0.6000000000000001 0.1
0.4 0.6000000000000001 0.1
0.5 0.6000000000000001 0.1
0.6000000000000001 0.6000000000000001 0.1
0.7000000000000001 0.6000000000000001 0.1
0.8 0.6000000000000001 0.1
0.9 0.6000000000000001 0.1
1.0 0.6000000000000001 0.1
0.0 0.7000000000000001 0.1
0.1 0.7000000000000001 0.1
0.2 0.7000000000000001 0.1
0.30000000000000004 0.7000000000000001 0.1
0.4 0.7000000000000001 0.1
0.5 0.7000000000000001 0.1
0.6000000000000001 0.7000000000000001 0.1
0.7000000000000001 0.7000000000000001 0.1
0.8 0.7000000000000001 0.1
0.9 0.7000000000000001 0.1
1.0 0.7000000000000001 0.1
0.0 0.8 0.1
0.1 0.8 0.1
0.2 0.8 0.1
0.30000000000000004 0.8 0.1
0.4 0.8 0.1
0.5 0.8 0.1
0.6000000000000001 0.8 0.1
0.7000000000000001 0.8 0.1
0.8 0.8 0.1
0.9 0.8 0.1
1.0 0.8 0.1
0.0 0.9 0.1
0.1 0.9 0.1
0.2 0.9 0.1
0.30000000000000004 0.9 0.1
0.4 0.9 0.1
0.5 0.9 0.1
0.6000000000000001 0.9 0.1
0.7000000000000001 0.9 0.1
0.8 0.9 0.1
0.9 0.9 0.1
1.0 0.9 0.1
0.0 1.0 0.1
0.1 1.0 0.1
0.2 1.0 0.1
0.30000000000000004 1.0 0.1
0.4 1.0 0.1
0.5 1.0 0.1
0.6000000000000001 1.0 0.1
0.7000000000000001 1.0 0.1
0.8 1.0 0.1
0.9 1.0 0.1
1.0 1.0 0.1
0.0 0.0 0.2
0.1 0.0 0.2
0.2 0.0 0.2
0.30000000000000004 0.0 0.2
0.4 0.0 0.2
0.5 0.0 0.2
0.6000000000000001 0.0 0.2
0.7000000000000001 0.0 0.2
0.8 0.0 0.2
0.9 0.0 0.2
1.0 0.0 0.2
0.0 0.1 0.2
0.1 0.1 0.2
0.2 0.1 0.2
0.30000000000000004 0.1 0.2
0.4 0.1 0.2
0.5 0.1 0.2
0.6000000000000001 0.1 0.2
0.7000000000000001 0.1 0.2
0.8 0.1 0.2
0.9 0.1 0.2
1.0 0.1 0.2
0.0 0.2 0.2
0.1 0.2 0.2
0.2 0.2 0.2
0.30000000000000004 0.2 0.2
0.4 0.2 0.2
0.5 0.2 0.2
0.6000000000000001 0.2 0.2
0.7000000000000001 0.2 0.2
0.8 0.2 0.2
0.9 0.2 0.2
1.0 0.2 0.2
0.0 0.30000000000000004 0.2
0.1 0.30000000000000004 0.2
0.2 0.30000000000000004 0.2
0.30000000000000004 0.30000000000000004 0.2
0.4 0.30000000000000004 0.2
0.5 0.30000000000000004 0.2
0.6000000000000001 0.30000000000000004 0.2
0.7000000000000001 0.30000000000000004 0.2
0.8 0.30000000000000004 0.2
0.9 0.30000000000000004 0.2
1.0 0.30000000000000004 0.2
0.0 0.4 0.2
0.1 0.4 0.2
0.2 0.4 0.2
0.30000000000000004 0.4 0.2
0.4 0.4 0.2
0.5 0.4 0.2
0.6000000000000001 0.4 0.2
0.7000000000000001 0.4 0.2
0.8 0.4 0.2
0.9 0.4 0.2
1.0 0.4 0.2
0.0 0.5 0.2
0.1 0.5 0.2
0.2 0.5 0.2
0.30000000000000004 0.5 0.2
0.4 0.5 0.2
0.5 0.5 0.2
0.6000000000000001 0.5 0.2
0.7000000000000001 0.5 0.2
0.8 0.5 0.2
0.9 0.5 0.2
1.0 0.5 0.2
0.0 0.6000000000000001 0.2
0.1 0.6000000000000001 0.2
0.2 0.6000000000000001 0.2
0.30000000000000004 0.6000000000000001 0.2
0.4 0.6000000000000001 0.2
0.5 0.6000000000000001 0.2
0.6000000000000001 0.6000000000000001 0.2
0.7000000000000001 0.6000000000000001 0.2
0.8 0.6000000000000001 0.2
0.9 0.6000000000000001 0.2
1.0 0.6000000000000001 0.2
0.0 0.7000000000000001 0.2
0.1 0.7000000000000001 0.2
0.2 0.7000000000000001 0.2
0.30000000000000004 0.7000000000000001 0.2
0.4 0.7000000000000001 0.2
0.5 0.7000000000000001 0.2
0.6000000000000001 0.7000000000000001 0.2
0.7000000000000001 0.7000000000000001 0.2
0.8 0.7000000000000001 0.2
0.9 0.7000000000000001 0.2
1.0 0.7000000000000001 0.2
0.0 0.8 0.2
0.1 0.8 0.2
0.2 0.8 0.2
0.30000000000000004 0.8 0.2
0.4 0.8 0.2
0.5 0.8 0.2
0.6000000000000001 0.8 0.2
0.7000000000000001 0.8 0.2
0.8 0.8 0.2
0.9 0.8 0.2
1.0 0.8 0.2
0.0 0.9 0.2
0.1 0.9 0.2
0.2 0.9 0.2
0.30000000000000004 0.9 0.2
0.4 0.9 0.2
0.5 0.9 0.2
0.6000000000000001 0.9 0.2
0.7000000000000001 0.9 0.2
0.8 0.9 0.2
0.9 0.9 0.2
1.0 0.9 0.2
0.0 1.0 0.2
0.1 1.0 0.2
0.2 1.0 0.2
0.30000000000000004 1.0 0.2
0.4 1.0 0.2
0.5 1.0 0.2
0.6000000000000001 1.0 0.2
0.7000000000000001 1.0 0.2
0.8 1.0 0.2
0.9 1.0 0.2
1.0 1.0 0.2
0.0 0.0 0.30000000000000004
0.1 0.0 0.30000000000000004
0.2 0.0 0.30000000000000004
0.30000000000000004 0.0 0.30000000000000004
0.4 0.0 0.30000000000000004
0.5 0.0 0.30000000000000004
0.6000000000000001 0.0 0.30000000000000004
0.7000000000000001 0.0 0.30000000000000004
0.8 0.0 0.30000000000000004
0.9 0.0 0.30000000000000004
1.0 0.0 0.30000000000000004
0.0 0.1 0.30000000000000004
0.1 0.1 0.30000000000000004
0.2 0.1 0.30000000000000004
0.30000000000000004 0.1 0.30000000000000004
0.4 0.1 0.30000000000000004
0.5 0.1 0.30000000000000004
0.6000000000000001 0.1 0.30000000000000004
0.7000000000000001 0.1 0.30000000000000004
0.8 0.1 0.30000000000000004
0.9 0.1 0.30000000000000004
1.0 0.1 0.30000000000000004
0.0 0.2 0.30000000000000004
0.1 0.2 0.30000000000000004
0.2 0.2 0.30000000000000004
0.30000000000000004 0.2 0.30000000000000004
0.4 0.2 0.30000000000000004
0.5 0.2 0.30000000000000004
0.6000000000000001 0.2 0.30000000000000004
0.7000000000000001 0.2 0.30000000000000004
0.8 0.2 0.30000000000000004
0.9 0.2 0.30000000000000004
1.0 0.2 0.30000000000000004
0.0 0.30000000000000004 0.30000000000000004
0.1 0.30000000000000004 0.30000000000000004
0.2 0.30000000000000004 0.30000000000000004
0.30000000000000004 0.30000000000000004 0.30000000000000004
0.4 0.30000000000000004 0.30000000000000004
0.5 0.30000000000000004 0.30000000000000004
0.6000000000000001 0.30000000000000004 0.30000000000000004
0.7000000000000001 0.30000000000000004 0.30000000000000004
0.8 0.30000000000000004 0.30000000000000004
0.9 0.30000000000000004 0.30000000000000004
1.0 0.30000000000000004 0.30000000000000004
0.0 0.4 0.30000000000000004
0.1 0.4 0.30000000000000004
0.2 0.4 0.30000000000000004
0.30000000000000004 0.4 0.30000000000000004
0.4 0.4 0.30000000000000004
0.5 0.4 0.30000000000000004
0.6000000000000001 0.4 0.30000000000000004
0.7000000000000001 0.4 0.30000000000000004
0.8 0.4 0.30000000000000004
0.9 0.4 0.30000000000000004
1.0 0.4 0.30000000000000004
0.0 0.5 0.30000000000000004
0.1 0.5 0.30000000000000004
0.2 0.5 0.30000000000000004
0.30000000000000004 0.5 0.30000000000000004
0.4 0.5 0.30000000000000004
0.5 0.5 0.30000000000000004
0.6000000000000001 0.5 0.30000000000000004
0.7000000000000001 0.5 0.30000000000000004
0.8 0.5 0.30000000000000004
0.9 0.5 0.30000000000000004
1.0 0.5 0.30000000000000004
0.0 0.6000000000000001 0.30000000000000004
0.1 0.6000000000000001 0.30000000000000004
0.2 0.6000000000000001 0.30000000000000004
0.30000000000000004 0.6000000000000001 0.30000000000000004
[...]
POINT_DATA 1331
VECTORS Disp float
0.0 0.0 0.0
0.0 0.0 0.0
0.0 0.0 0.0
0.0 0.0 0.0
0.0 0.0 0.0
0.0 0.0 0.0
0.0 0.0 0.0
0.0 0.0 0.0
0.0 0.0 0.0
0.0 0.0 0.0
0.0 0.0 0.0
0.0035215834954236826 0.0032269574934367766 0.004102163617978388
0.002130267882324973 0.001400431675371393 0.0022411804421155397
0.0018411750052806427 0.0005196386092275625 0.00126173310145318
0.0019091867706589134 0.00020787872737480797 0.0007008100261726246
0.001997678742243286 0.00011325578659712248 0.00034735974689161387
0.0020382864526199028 2.1172263740501504e-05 4.180812980099814e-05
0.0020337773880977515 -6.725507674146077e-05 -0.00025541951201273343
0.0019823565804654034 -0.00015721558142744345 -0.00058465101107304
0.0019016458697474013 -0.00033377156978830504 -0.00103189784839003
0.002085550169990872 -0.0011655227627202001 -0.0018906237609059688
0.0033002285957143985 -0.0030544794108204173 -0.0037591618651684174
0.007485165777934332 0.00645690250723141 0.004418073023112917
0.0066419300421670414 0.0028804603997232593 0.002813653278529978
0.006299033296676224 0.0009804367917403136 0.0017216765034993573
0.0062884582657438196 0.00041724893282283677 0.0010620100294329907
0.0063491603058829895 0.0001965502328238058 0.0005257793626386947
0.006393499579395971 2.8777692475423424e-05 6.646634213878434e-05
0.0063951984086189455 -0.0001341557819222577 -0.00037535194256891485
0.006378554116403161 -0.000352696625109903 -0.0008588636233022837
0.006423264703117481 -0.000744716751161002 -0.001411233145043701
0.0066824843474360945 -0.002473952922922559 -0.002300717284023567
0.007302702186258592 -0.006097388563439115 -0.0038044878218147183
0.013067119168357559 0.008245407242605139 0.0033052727455148596
0.012524274203199195 0.0037103075868615398 0.002261183178592349
0.012266782042246852 0.0013801193605670113 0.0015633351659126238
0.012199178118432635 0.0005854213195189159 0.000992723338777722
0.012227533554542211 0.00024063443720585994 0.0005099856734773374
0.012269785019993113 2.0921100728744812e-05 9.26594715106057e-05
0.012291784934777871 -0.00019481088041239976 -0.0003026125968620308
0.012316536251712449 -0.0005394329147663827 -0.0007136591494872561
0.012429051927382143 -0.001226999393727399 -0.0011806160926387454
0.012631675677408763 -0.003361129625836758 -0.0016877143338614002
0.01290839061242466 -0.007948782267270438 -0.0025791560164910633
0.01922745098373017 0.00909961584786328 0.0016647026710630505
0.018919033567671432 0.004118919457702834 0.0012504280362659913
0.018762065481885 0.0016725665659313598 0.0009558911680487801
0.018701389070795348 0.0007089317879153198 0.0006329671795828502
0.018709652583014467 0.00026587015893894867 0.00034722580235241817
0.018742102018270014 5.508948831150119e-06 0.00010862543577175806
0.018774721280404506 -0.00025342231826170356 -0.00010512010339840287
0.018815949274525474 -0.0006960002467423579 -0.00031212390979823895
0.018905024761422376 -0.0016237150945921212 -0.0005301063246867669
0.01901726881306547 -0.0039470817351732 -0.0007002363675993316
0.019036219763139118 -0.008964508319709514 -0.000985300174219242
0.02523947876882147 0.009252235175412528 0.0002430720081747605
0.02507139540705708 0.004178043103124029 0.00023709457206551549
0.025014665393203503 0.0017734069474532957 0.00020865489917821576
0.024993352764116572 0.0007529546462312573 0.00015724995507917207
0.024991691401752312 0.0002766304753757331 0.00011938630324606096
0.025000000000000012 -2.7172182213704817e-18 0.0001069053169763185
0.025008308598247733 -0.0002766304753757239 0.00011938630324607313
0.025006647235883507 -0.0007529546462312756 0.00015724995507919782
0.024985334606796566 -0.0017734069474532798 0.00020865489917824202
0.02492860459294299 -0.004178043103124048 0.00023709457206554563
0.024760521231178598 -0.009252235175412512 0.0002430720081747954
0.030963780236860937 0.008964508319709498 -0.000985300174219268
0.030982731186934606 0.003947081735173187 -0.0007002363675993608
0.031094975238577693 0.0016237150945921158 -0.0005301063246867872
0.03118405072547458 0.0006960002467423595 -0.0003121239097982714
0.031225278719595552 0.0002534223182617083 -0.00010512010339841938
0.03125789798173005 -5.508948831153806e-06 0.00010862543577174808
0.0312903474169856 -0.00026587015893894927 0.00034722580235243265
0.03129861092920473 -0.0007089317879153221 0.0006329671795828823
0.031237934518115063 -0.0016725665659313503 0.0009558911680487948
0.03108096643232864 -0.004118919457702856 0.001250428036266025
0.030772549016269902 -0.009099615847863287 0.0016647026710630728
0.03709160938757541 0.00794878226727044 -0.0025791560164910832
0.037368324322591295 0.003361129625836751 -0.0016877143338614145
0.0375709480726179 0.001226999393727404 -0.0011806160926387684
0.037683463748287634 0.0005394329147664103 -0.0007136591494872808
0.03770821506522221 0.00019481088041239822 -0.0003026125968620504
0.03773021498000694 -2.092110072873796e-05 9.265947151060723e-05
0.037772466445457856 -0.0002406344372058618 0.0005099856734773389
0.03780082188156745 -0.0005854213195189304 0.0009927233387777392
0.037733217957753216 -0.001380119360567002 0.0015633351659126553
0.03747572579680086 -0.0037103075868615653 0.0022611831785923756
0.03693288083164249 -0.008245407242605127 0.003305272745514891
0.04269729781374143 0.0060973885634391265 -0.0038044878218147144
0.043317515652563914 0.0024739529229225693 -0.002300717284023576
0.043576735296882545 0.0007447167511609929 -0.001411233145043715
0.04362144588359688 0.00035269662510990893 -0.0008588636233023046
0.0436048015913811 0.00013415578192226202 -0.0003753519425689192
0.04360650042060407 -2.8777692475427574e-05 6.646634213879157e-05
0.04365083969411706 -0.00019655023282380508 0.0005257793626387091
0.043711541734256204 -0.0004172489328228547 0.0010620100294330055
0.04370096670332379 -0.0009804367917403245 0.001721676503499379
0.043358069957833006 -0.0028804603997232506 0.00281365327852999
0.04251483422206572 -0.006456902507231402 0.004418073023112958
0.04669977140428561 0.0030544794108204086 -0.003759161865168412
0.04791444983000913 0.001165522762720207 -0.001890623760905972
0.048098354130252596 0.00033377156978830667 -0.0010318978483900368
0.04801764341953461 0.0001572155814274478 -0.0005846510110730549
0.047966222611902275 6.725507674145891e-05 -0.0002554195120127349
0.047961713547380116 -2.1172263740502e-05 4.1808129801004326e-05
0.048002321257756726 -0.00011325578659711439 0.0003473597468916175
0.04809081322934109 -0.00020787872737480686 0.0007008100261726228
0.04815882499471937 -0.0005196386092275872 0.001261733101453181
0.04786973211767503 -0.0014004316753713996 0.00224118044211554
0.046478416504576354 -0.003226957493436774 0.004102163617978395
0.05 0.0 0.0
0.05 0.0 0.0
0.05 0.0 0.0
0.05 0.0 0.0
0.05 0.0 0.0
0.05 0.0 0.0
0.05 0.0 0.0
0.05 0.0 0.0
0.05 0.0 0.0
0.05 0.0 0.0
0.05 0.0 0.0
0.0 0.0 0.0
0.0 0.0 0.0
0.0 0.0 0.0
0.0 0.0 0.0
0.0 0.0 0.0
0.0 0.0 0.0
0.0 0.0 0.0
0.0 0.0 0.0
0.0 0.0 0.0
0.0 0.0 0.0
0.0 0.0 0.0
0.004525878014437673 0.0027227840373865693 0.00224268213760771
0.002836270030182471 0.0009129227283601764 0.0014013233440722923
0.0023089027756943836 0.00026274005767838303 0.000817445107709355
0.002224554661552248 3.732863927156569e-05 0.00045205906558791134
0.0022391326664693155 2.875410814799337e-05 0.00021505625359351157
0.002252362282187505 3.972083109411223e-06 1.999582887535938e-05
0.0022556127218923087 -2.1830366415741718e-05 -0.00016891672712417824
0.0022561151799758007 -3.861571830705548e-05 -0.0003777108481133499
0.0023130915042765396 -0.00015492568092579143 -0.000680098060644211
0.0027566433638472315 -0.0008224841087023211 -0.0012015051076789828
0.004338877663272948 -0.0026914135400272926 -0.0020182781310234777
0.008928401480843267 0.006374467571786745 0.0030474134215293536
0.007555881398710571 0.002838271147059614 0.0021110949344981863
0.006881639560649321 0.0009168842020382755 0.0013294393821796945
0.0066861724770022855 0.00032651594731478774 0.0007947707129353414
0.006654423083468679 0.00014799047674648644 0.00039098229047563384
0.0066630071342327415 9.3235020101769e-06 4.543747723527699e-05
0.006672644541118586 -0.00012800960693879856 -0.0002850132646088059
0.00672016789579301 -0.00031865579123221553 -0.0006408670450589872
0.006919146398910413 -0.0007354416767395322 -0.0010803610170265969
0.007494857239948427 -0.002595187090984326 -0.0017488100139945281
0.008663557739741073 -0.006210483923922166 -0.002609072469959071
0.014055028406414804 0.0087678318416888 0.0024575872710867765
0.013247439277388823 0.004258291036537011 0.0017883556704605176
0.012770638781624532 0.0016061251848215946 0.001219880798917629
0.012569339357029315 0.0006898298555078066 0.0007748480289298807
0.01252165030005785 0.00028396933034510865 0.00039692077455895304
0.012530128887242923 6.200216114463698e-06 6.755647777405703e-05
0.012553434432821356 -0.0002679832692510894 -0.0002420922033583104
0.01262302396580275 -0.0006864273934435539 -0.000563258640892072
0.012838991323608929 -0.0014726705217248466 -0.0009145949882093936
0.01321078938679333 -0.00399615864942185 -0.0013549066821377548
0.01373827966060636 -0.00858407927914943 -0.001920631645861602
0.019641433207227513 0.009861078126050402 0.001303263526630121
0.019283826802339206 0.004897109631259428 0.0010026065103791485
0.01904302404229769 0.002068732308086712 0.0007403697803302216
0.01892574354596885 0.0009559488629626133 0.0004985033807348087
0.01889251852459703 0.00037870817425513295 0.0002729784586844563
0.0188994216344097 -1.2700213669104498e-06 8.12012967849742e-05
0.018923191943240672 -0.0003791999425250692 -8.965342000444198e-05
0.01897360039822191 -0.0009620872025682284 -0.00025506502845374247
0.01909267622935039 -0.0020223976217221894 -0.0004170066815002369
0.01923085866369302 -0.0047378312160731165 -0.0005744444995023587
0.019277136664282688 -0.00974144523414753 -0.0007845194669506511
0.025275527058863715 0.010046288061370687 0.00018681764615635003
0.02511825837905528 0.004978273003633485 0.00018536961936478378
0.02505028345268926 0.0022164808839722455 0.00015834209396527532
0.025023553268297062 0.0010487812545424647 0.00012361637844474408
0.025008129495462356 0.00041509859155491543 9.427984396011137e-05
0.025000000000000022 2.9750501946961024e-18 8.411906904006258e-05
0.024991870504537696 -0.0004150985915549021 9.427984396012238e-05
0.024976446731702986 -0.0010487812545424613 0.00012361637844476246
0.0249497165473108 -0.002216480883972246 0.0001583420939652949
0.024881741620944777 -0.004978273003633503 0.00018536961936479636
0.024724472941136347 -0.010046288061370685 0.000186817646156374
0.030722863335717394 0.009741445234147524 -0.0007845194669506726
0.030769141336307045 0.004737831216073113 -0.0005744444995023824
0.03090732377064966 0.0020223976217221724 -0.0004170066815002624
0.031026399601778134 0.0009620872025682335 -0.00025506502845376296
0.031076808056759372 0.00037919994252506807 -8.965342000445513e-05
0.031100578365590346 1.2700213669080696e-06 8.120129678497855e-05
0.031107481475403004 -0.00037870817425512265 0.00027297845868447224
0.03107425645403121 -0.0009559488629626214 0.0004985033807348311
0.030956975957702373 -0.002068732308086704 0.0007403697803302506
0.030716173197660866 -0.004897109631259453 0.0010026065103791665
0.030358566792772556 -0.009861078126050395 0.0013032635266301562
0.03626172033939368 0.008584079279149424 -0.0019206316458616286
0.0367892106132067 0.003996158649421845 -0.0013549066821377765
0.03716100867639111 0.001472670521724848 -0.0009145949882094168
0.03737697603419728 0.000686427393443559 -0.0005632586408921031
0.03744656556717868 0.00026798326925108607 -0.0002420922033583267
0.037469871112757104 -6.200216114465521e-06 6.755647777405772e-05
0.0374783496999422 -0.0002839693303451071 0.00039692077455897586
0.03743066064297074 -0.0006898298555078235 0.0007748480289299002
0.03722936121837552 -0.001606125184821594 0.0012198807989176508
0.036752560722611224 -0.0042582910365370225 0.0017883556704605351
0.03594497159358523 -0.008767831841688794 0.002457587271086791
0.04133644226025897 0.006210483923922152 -0.002609072469959093
0.04250514276005161 0.0025951870909843217 -0.0017488100139945448
0.043080853601089625 0.0007354416767395189 -0.0010803610170266138
0.043279832104207015 0.00031865579123222047 -0.0006408670450590004
0.04332735545888145 0.00012800960693881962 -0.00028501326460880945
0.04333699286576729 -9.323502010196446e-06 4.543747723527062e-05
0.043345576916531334 -0.0001479904767464804 0.00039098229047563834
0.04331382752299772 -0.00032651594731479127 0.0007947707129353526
0.0431183604393507 -0.0009168842020382728 0.0013294393821797117
0.04244411860128945 -0.002838271147059613 0.0021110949344982067
0.041071598519156746 -0.00637446757178671 0.003047413421529373
0.045661122336727054 0.0026914135400272843 -0.0020182781310234717
0.047243356636152777 0.0008224841087023218 -0.0012015051076789795
0.04768690849572345 0.00015492568092578867 -0.0006800980606442195
0.04774388482002421 3.861571830706235e-05 -0.00037771084811334953
0.04774438727810769 2.1830366415769287e-05 -0.00016891672712417445
0.04774763771781249 -3.972083109417423e-06 1.9995828875355065e-05
0.047760867333530695 -2.8754108147981296e-05 0.00021505625359351572
0.04777544533844776 -3.732863927157584e-05 0.0004520590655879186
0.04769109722430563 -0.0002627400576783772 0.000817445107709369
0.04716372996981754 -0.0009129227283601613 0.0014013233440722979
0.045474121985562346 -0.0027227840373865633 0.002242682137607717
0.05 0.0 0.0
0.05 0.0 0.0
0.05 0.0 0.0
0.05 0.0 0.0
0.05 0.0 0.0
0.05 0.0 0.0
0.05 0.0 0.0
0.05 0.0 0.0
0.05 0.0 0.0
0.05 0.0 0.0
0.05 0.0 0.0
0.0 0.0 0.0
0.0 0.0 0.0
0.0 0.0 0.0
0.0 0.0 0.0
0.0 0.0 0.0
0.0 0.0 0.0
0.0 0.0 0.0
0.0 0.0 0.0
0.0 0.0 0.0
0.0 0.0 0.0
0.0 0.0 0.0
0.005032988955972876 0.002881555985256867 0.001253666190800565
0.0029730286427042674 0.0009487108530626869 0.0008695386730996779
0.002392432278770853 0.0003136342176452365 0.0005609073203869371
0.002291014798079113 5.268533301358221e-05 0.0003176939992263325
0.002294132328099335 3.328246414050953e-05 0.0001486904190344098
0.0022976604406652573 1.237936231806833e-06 1.3306981342489076e-05
0.0023009608770327857 -3.3179435809835026e-05 -0.00011523630081624438
0.0023108334505727982 -5.6322331000789935e-05 -0.0002592406381934322
0.0023847040163522616 -0.0002121289166814796 -0.0004664692225454119
0.002881251935825723 -0.0008841747203524678 -0.0007405782944804396
0.004827439175823548 -0.0028610557529871582 -0.001106008828840307
0.009523257728221695 0.006326618789066388 0.0018713214392335812
0.007979029912788479 0.002864407734651034 0.0013816854847795198
0.007163826993114071 0.0009572505835353314 0.0009119027922804923
0.006881397297548189 0.00031247662889344145 0.0005417844051240194
0.006793452362660858 0.00013898969532141628 0.00026331589587442783
0.006778779657127235 3.0453515344914564e-06 3.156927938317197e-05
0.0067990508032459455 -0.00013435020147614391 -0.00018786722246401727
0.0068958059977509995 -0.0003174754454166221 -0.00042666034701529154
0.007175352473784317 -0.0007903612129443743 -0.0007339449884048841
0.007878149594433108 -0.002697214650275251 -0.0011391690974137385
0.00921993807713839 -0.006214162818872171 -0.0015801426729395072
0.014596776897947455 0.008725893470483031 0.0016388594834170294
0.013651534819102779 0.004425815034066786 0.001243130555503485
0.013066369572614164 0.0017100954412204857 0.0008581649145411857
0.012774349749992657 0.0006986378550894571 0.0005365265436437644
0.01267064229713214 0.00029099290054508794 0.0002742576521457885
0.012656170058330921 1.0137622775240226e-06 4.791004300397596e-05
0.012687229138448148 -0.00028624200532513684 -0.00016359428462983113
0.012800632653401684 -0.000710244222779225 -0.0003822205005371602
0.01309155231857693 -0.0015700046736980564 -0.0006343541379284387
0.013543190749163063 -0.004235479993911177 -0.0009381155798893958
0.014217723523551625 -0.008604311134864444 -0.0012694360347854294
0.019933409217575925 0.009938672512955977 0.000908028760463396
0.019530740233159177 0.005224594847568249 0.0007114486299457977
0.019237272083183373 0.0022052663144046104 0.0005197881061746718
0.019067936771294692 0.001011006876606516 0.00034619746946057064
0.01899833699136285 0.0004072132885022496 0.00019085662611734223
0.0189892819205189 -4.7531364489976425e-06 5.7968596969287295e-05
0.0190125742284999 -0.000413626165436447 -5.9729404188657096e-05
0.019081630127220073 -0.0010294071489289462 -0.00017210291208545936
0.019233844272282082 -0.0021470462269247816 -0.0002864096820730824
0.019390497911067204 -0.005106707399758567 -0.0003994817276479938
0.01949760856043598 -0.009861390482141973 -0.0005285243891767974
0.02530015216184919 0.010202109495975763 0.00012984244538560407
0.025155347357262898 0.005376214124789825 0.00012723027600881198
0.025073323859150627 0.0023549644688016977 0.00011154626609011958
0.025039230828872223 0.001129992353522113 8.788528261090225e-05
0.02501563599788614 0.0004545362138729665 6.804668357351916e-05
0.025000000000000012 -5.044585820666878e-18 6.08981186365825e-05
0.024984364002113898 -0.00045453621387295674 6.804668357353197e-05
0.024960769171127828 -0.001129992353522119 8.788528261092653e-05
0.024926676140849428 -0.0023549644688017008 0.00011154626609013757
0.02484465264273716 -0.005376214124789838 0.0001272302760088366
0.024699847838150872 -0.01020210949597578 0.00012984244538561513
0.030502391439564097 0.009861390482141965 -0.0005285243891768289
0.030609502088932882 0.005106707399758557 -0.0003994817276480087
0.030766155727717993 0.0021470462269247894 -0.00028640968207310427
0.030918369872779978 0.0010294071489289486 -0.00017210291208547563
0.030987425771500137 0.0004136261654364571 -5.972940418866729e-05
0.03101071807948114 4.75313644898583e-06 5.796859696928214e-05
0.03100166300863719 -0.000407213288502242 0.0001908566261173499
0.03093206322870535 -0.0010110068766065214 0.00034619746946058517
0.03076272791681669 -0.0022052663144046195 0.0005197881061746892
0.030469259766840884 -0.005224594847568267 0.0007114486299458136
0.030066590782424133 -0.009938672512955962 0.000908028760463414
0.035782276476448424 0.008604311134864427 -0.001269436034785456
0.036456809250837 0.004235479993911167 -0.0009381155798894119
0.03690844768142312 0.0015700046736980514 -0.0006343541379284623
0.037199367346598365 0.0007102442227792479 -0.0003822205005371825
0.03731277086155189 0.0002862420053251532 -0.00016359428462983566
0.03734382994166909 -1.0137622775282917e-06 4.791004300396859e-05
0.0373293577028679 -0.0002909929005450983 0.00027425765214579475
0.037225650250007396 -0.0006986378550894665 0.0005365265436437782
0.03693363042738588 -0.0017100954412205003 0.0008581649145412048
0.03634846518089727 -0.0044258150340667855 0.0012431305555035091
0.035403223102052614 -0.008725893470483023 0.0016388594834170398
0.04078006192286165 0.006214162818872141 -0.0015801426729395102
0.04212185040556691 0.00269721465027525 -0.0011391690974137424
0.042824647526215696 0.0007903612129443691 -0.000733944988404896
0.04310419400224902 0.00031747544541663425 -0.00042666034701529837
0.04320094919675408 0.0001343502014761709 -0.00018786722246402535
0.04322122034287279 -3.0453515344954646e-06 3.15692793831813e-05
0.043206547637339165 -0.00013898969532142097 0.0002633158958744397
0.04311860270245183 -0.00031247662889344715 0.0005417844051240368
0.04283617300688595 -0.0009572505835353304 0.0009119027922805034
0.042020970087211534 -0.002864407734651038 0.0013816854847795265
0.04047674227177835 -0.006326618789066387 0.0018713214392335651
0.04517256082417646 0.0028610557529871504 -0.0011060088288403003
0.04711874806417429 0.0008841747203524674 -0.0007405782944804459
0.04761529598364774 0.00021212891668146897 -0.0004664692225454172
0.0476891665494272 5.632233100080183e-05 -0.0002592406381934426
0.04769903912296722 3.317943580983853e-05 -0.00011523630081625208
0.04770233955933476 -1.2379362318129283e-06 1.3306981342480255e-05
0.04770586767190069 -3.3282464140502844e-05 0.00014869041903441593
0.047708985201920885 -5.268533301358652e-05 0.00031769399922633256