# vtk DataFile Version 3.0
Some data
ASCII
DATASET UNSTRUCTURED_GRID
POINTS 1331 float
0.0 0.0 0.0
0.1 0.0 0.0
0.2 0.0 0.0
0.30000000000000004 0.0 0.0
0.4 0.0 0.0
0.5 0.0 0.0
0.6000000000000001 0.0 0.0
0.7000000000000001 0.0 0.0
0.8 0.0 0.0
0.9 0.0 0.0
1.0 0.0 0.0
0.0 0.1 0.0
0.1 0.1 0.0
0.2 0.1 0.0
0.30000000000000004 0.1 0.0
0.4 0.1 0.0
0.5 0.1 0.0
0.6000000000000001 0.1 0.0
0.7000000000000001 0.1 0.0
0.8 0.1 0.0
0.9 0.1 0.0
1.0 0.1 0.0
0.0 0.2 0.0
0.1 0.2 0.0
0.2 0.2 0.0
0.30000000000000004 0.2 0.0
0.4 0.2 0.0
0.5 0.2 0.0
0.6000000000000001 0.2 0.0
0.7000000000000001 0.2 0.0
0.8 0.2 0.0
0.9 0.2 0.0
1.0 0.2 0.0
0.0 0.30000000000000004 0.0
0.1 0.30000000000000004 0.0
0.2 0.30000000000000004 0.0
0.30000000000000004 0.30000000000000004 0.0
0.4 0.30000000000000004 0.0
0.5 0.30000000000000004 0.0
0.6000000000000001 0.30000000000000004 0.0
0.7000000000000001 0.30000000000000004 0.0
0.8 0.30000000000000004 0.0
0.9 0.30000000000000004 0.0
1.0 0.30000000000000004 0.0
0.0 0.4 0.0
0.1 0.4 0.0
0.2 0.4 0.0
0.30000000000000004 0.4 0.0
0.4 0.4 0.0
0.5 0.4 0.0
0.6000000000000001 0.4 0.0
0.7000000000000001 0.4 0.0
0.8 0.4 0.0
0.9 0.4 0.0
1.0 0.4 0.0
0.0 0.5 0.0
0.1 0.5 0.0
0.2 0.5 0.0
0.30000000000000004 0.5 0.0
0.4 0.5 0.0
0.5 0.5 0.0
0.6000000000000001 0.5 0.0
0.7000000000000001 0.5 0.0
0.8 0.5 0.0
0.9 0.5 0.0
1.0 0.5 0.0
0.0 0.6000000000000001 0.0
0.1 0.6000000000000001 0.0
0.2 0.6000000000000001 0.0
0.30000000000000004 0.6000000000000001 0.0
0.4 0.6000000000000001 0.0
0.5 0.6000000000000001 0.0
0.6000000000000001 0.6000000000000001 0.0
0.7000000000000001 0.6000000000000001 0.0
0.8 0.6000000000000001 0.0
0.9 0.6000000000000001 0.0
1.0 0.6000000000000001 0.0
0.0 0.7000000000000001 0.0
0.1 0.7000000000000001 0.0
0.2 0.7000000000000001 0.0
0.30000000000000004 0.7000000000000001 0.0
0.4 0.7000000000000001 0.0
0.5 0.7000000000000001 0.0
0.6000000000000001 0.7000000000000001 0.0
0.7000000000000001 0.7000000000000001 0.0
0.8 0.7000000000000001 0.0
0.9 0.7000000000000001 0.0
1.0 0.7000000000000001 0.0
0.0 0.8 0.0
0.1 0.8 0.0
0.2 0.8 0.0
0.30000000000000004 0.8 0.0
0.4 0.8 0.0
0.5 0.8 0.0
0.6000000000000001 0.8 0.0
0.7000000000000001 0.8 0.0
0.8 0.8 0.0
0.9 0.8 0.0
1.0 0.8 0.0
0.0 0.9 0.0
0.1 0.9 0.0
0.2 0.9 0.0
0.30000000000000004 0.9 0.0
0.4 0.9 0.0
0.5 0.9 0.0
0.6000000000000001 0.9 0.0
0.7000000000000001 0.9 0.0
0.8 0.9 0.0
0.9 0.9 0.0
1.0 0.9 0.0
0.0 1.0 0.0
0.1 1.0 0.0
0.2 1.0 0.0
0.30000000000000004 1.0 0.0
0.4 1.0 0.0
0.5 1.0 0.0
0.6000000000000001 1.0 0.0
0.7000000000000001 1.0 0.0
0.8 1.0 0.0
0.9 1.0 0.0
1.0 1.0 0.0
0.0 0.0 0.1
0.1 0.0 0.1
0.2 0.0 0.1
0.30000000000000004 0.0 0.1
0.4 0.0 0.1
0.5 0.0 0.1
0.6000000000000001 0.0 0.1
0.7000000000000001 0.0 0.1
0.8 0.0 0.1
0.9 0.0 0.1
1.0 0.0 0.1
0.0 0.1 0.1
0.1 0.1 0.1
0.2 0.1 0.1
0.30000000000000004 0.1 0.1
0.4 0.1 0.1
0.5 0.1 0.1
0.6000000000000001 0.1 0.1
0.7000000000000001 0.1 0.1
0.8 0.1 0.1
0.9 0.1 0.1
1.0 0.1 0.1
0.0 0.2 0.1
0.1 0.2 0.1
0.2 0.2 0.1
0.30000000000000004 0.2 0.1
0.4 0.2 0.1
0.5 0.2 0.1
0.6000000000000001 0.2 0.1
0.7000000000000001 0.2 0.1
0.8 0.2 0.1
0.9 0.2 0.1
1.0 0.2 0.1
0.0 0.30000000000000004 0.1
0.1 0.30000000000000004 0.1
0.2 0.30000000000000004 0.1
0.30000000000000004 0.30000000000000004 0.1
0.4 0.30000000000000004 0.1
0.5 0.30000000000000004 0.1
0.6000000000000001 0.30000000000000004 0.1
0.7000000000000001 0.30000000000000004 0.1
0.8 0.30000000000000004 0.1
0.9 0.30000000000000004 0.1
1.0 0.30000000000000004 0.1
0.0 0.4 0.1
0.1 0.4 0.1
0.2 0.4 0.1
0.30000000000000004 0.4 0.1
0.4 0.4 0.1
0.5 0.4 0.1
0.6000000000000001 0.4 0.1
0.7000000000000001 0.4 0.1
0.8 0.4 0.1
0.9 0.4 0.1
1.0 0.4 0.1
0.0 0.5 0.1
0.1 0.5 0.1
0.2 0.5 0.1
0.30000000000000004 0.5 0.1
0.4 0.5 0.1
0.5 0.5 0.1
0.6000000000000001 0.5 0.1
0.7000000000000001 0.5 0.1
0.8 0.5 0.1
0.9 0.5 0.1
1.0 0.5 0.1
0.0 0.6000000000000001 0.1
0.1 0.6000000000000001 0.1
0.2 0.6000000000000001 0.1
0.30000000000000004 0.6000000000000001 0.1
0.4 0.6000000000000001 0.1
0.5 0.6000000000000001 0.1
0.6000000000000001 0.6000000000000001 0.1
0.7000000000000001 0.6000000000000001 0.1
0.8 0.6000000000000001 0.1
0.9 0.6000000000000001 0.1
1.0 0.6000000000000001 0.1
0.0 0.7000000000000001 0.1
0.1 0.7000000000000001 0.1
0.2 0.7000000000000001 0.1
0.30000000000000004 0.7000000000000001 0.1
0.4 0.7000000000000001 0.1
0.5 0.7000000000000001 0.1
0.6000000000000001 0.7000000000000001 0.1
0.7000000000000001 0.7000000000000001 0.1
0.8 0.7000000000000001 0.1
0.9 0.7000000000000001 0.1
1.0 0.7000000000000001 0.1
0.0 0.8 0.1
0.1 0.8 0.1
0.2 0.8 0.1
0.30000000000000004 0.8 0.1
0.4 0.8 0.1
0.5 0.8 0.1
0.6000000000000001 0.8 0.1
0.7000000000000001 0.8 0.1
0.8 0.8 0.1
0.9 0.8 0.1
1.0 0.8 0.1
0.0 0.9 0.1
0.1 0.9 0.1
0.2 0.9 0.1
0.30000000000000004 0.9 0.1
0.4 0.9 0.1
0.5 0.9 0.1
0.6000000000000001 0.9 0.1
0.7000000000000001 0.9 0.1
0.8 0.9 0.1
0.9 0.9 0.1
1.0 0.9 0.1
0.0 1.0 0.1
0.1 1.0 0.1
0.2 1.0 0.1
0.30000000000000004 1.0 0.1
0.4 1.0 0.1
0.5 1.0 0.1
0.6000000000000001 1.0 0.1
0.7000000000000001 1.0 0.1
0.8 1.0 0.1
0.9 1.0 0.1
1.0 1.0 0.1
0.0 0.0 0.2
0.1 0.0 0.2
0.2 0.0 0.2
0.30000000000000004 0.0 0.2
0.4 0.0 0.2
0.5 0.0 0.2
0.6000000000000001 0.0 0.2
0.7000000000000001 0.0 0.2
0.8 0.0 0.2
0.9 0.0 0.2
1.0 0.0 0.2
0.0 0.1 0.2
0.1 0.1 0.2
0.2 0.1 0.2
0.30000000000000004 0.1 0.2
0.4 0.1 0.2
0.5 0.1 0.2
0.6000000000000001 0.1 0.2
0.7000000000000001 0.1 0.2
0.8 0.1 0.2
0.9 0.1 0.2
1.0 0.1 0.2
0.0 0.2 0.2
0.1 0.2 0.2
0.2 0.2 0.2
0.30000000000000004 0.2 0.2
0.4 0.2 0.2
0.5 0.2 0.2
0.6000000000000001 0.2 0.2
0.7000000000000001 0.2 0.2
0.8 0.2 0.2
0.9 0.2 0.2
1.0 0.2 0.2
0.0 0.30000000000000004 0.2
0.1 0.30000000000000004 0.2
0.2 0.30000000000000004 0.2
0.30000000000000004 0.30000000000000004 0.2
0.4 0.30000000000000004 0.2
0.5 0.30000000000000004 0.2
0.6000000000000001 0.30000000000000004 0.2
0.7000000000000001 0.30000000000000004 0.2
0.8 0.30000000000000004 0.2
0.9 0.30000000000000004 0.2
1.0 0.30000000000000004 0.2
0.0 0.4 0.2
0.1 0.4 0.2
0.2 0.4 0.2
0.30000000000000004 0.4 0.2
0.4 0.4 0.2
0.5 0.4 0.2
0.6000000000000001 0.4 0.2
0.7000000000000001 0.4 0.2
0.8 0.4 0.2
0.9 0.4 0.2
1.0 0.4 0.2
0.0 0.5 0.2
0.1 0.5 0.2
0.2 0.5 0.2
0.30000000000000004 0.5 0.2
0.4 0.5 0.2
0.5 0.5 0.2
0.6000000000000001 0.5 0.2
0.7000000000000001 0.5 0.2
0.8 0.5 0.2
0.9 0.5 0.2
1.0 0.5 0.2
0.0 0.6000000000000001 0.2
0.1 0.6000000000000001 0.2
0.2 0.6000000000000001 0.2
0.30000000000000004 0.6000000000000001 0.2
0.4 0.6000000000000001 0.2
0.5 0.6000000000000001 0.2
0.6000000000000001 0.6000000000000001 0.2
0.7000000000000001 0.6000000000000001 0.2
0.8 0.6000000000000001 0.2
0.9 0.6000000000000001 0.2
1.0 0.6000000000000001 0.2
0.0 0.7000000000000001 0.2
0.1 0.7000000000000001 0.2
0.2 0.7000000000000001 0.2
0.30000000000000004 0.7000000000000001 0.2
0.4 0.7000000000000001 0.2
0.5 0.7000000000000001 0.2
0.6000000000000001 0.7000000000000001 0.2
0.7000000000000001 0.7000000000000001 0.2
0.8 0.7000000000000001 0.2
0.9 0.7000000000000001 0.2
1.0 0.7000000000000001 0.2
0.0 0.8 0.2
0.1 0.8 0.2
0.2 0.8 0.2
0.30000000000000004 0.8 0.2
0.4 0.8 0.2
0.5 0.8 0.2
0.6000000000000001 0.8 0.2
0.7000000000000001 0.8 0.2
0.8 0.8 0.2
0.9 0.8 0.2
1.0 0.8 0.2
0.0 0.9 0.2
0.1 0.9 0.2
0.2 0.9 0.2
0.30000000000000004 0.9 0.2
0.4 0.9 0.2
0.5 0.9 0.2
0.6000000000000001 0.9 0.2
0.7000000000000001 0.9 0.2
0.8 0.9 0.2
0.9 0.9 0.2
1.0 0.9 0.2
0.0 1.0 0.2
0.1 1.0 0.2
0.2 1.0 0.2
0.30000000000000004 1.0 0.2
0.4 1.0 0.2
0.5 1.0 0.2
0.6000000000000001 1.0 0.2
0.7000000000000001 1.0 0.2
0.8 1.0 0.2
0.9 1.0 0.2
1.0 1.0 0.2
0.0 0.0 0.30000000000000004
0.1 0.0 0.30000000000000004
0.2 0.0 0.30000000000000004
0.30000000000000004 0.0 0.30000000000000004
0.4 0.0 0.30000000000000004
0.5 0.0 0.30000000000000004
0.6000000000000001 0.0 0.30000000000000004
0.7000000000000001 0.0 0.30000000000000004
0.8 0.0 0.30000000000000004
0.9 0.0 0.30000000000000004
1.0 0.0 0.30000000000000004
0.0 0.1 0.30000000000000004
0.1 0.1 0.30000000000000004
0.2 0.1 0.30000000000000004
0.30000000000000004 0.1 0.30000000000000004
0.4 0.1 0.30000000000000004
0.5 0.1 0.30000000000000004
0.6000000000000001 0.1 0.30000000000000004
0.7000000000000001 0.1 0.30000000000000004
0.8 0.1 0.30000000000000004
0.9 0.1 0.30000000000000004
1.0 0.1 0.30000000000000004
0.0 0.2 0.30000000000000004
0.1 0.2 0.30000000000000004
0.2 0.2 0.30000000000000004
0.30000000000000004 0.2 0.30000000000000004
0.4 0.2 0.30000000000000004
0.5 0.2 0.30000000000000004
0.6000000000000001 0.2 0.30000000000000004
0.7000000000000001 0.2 0.30000000000000004
0.8 0.2 0.30000000000000004
0.9 0.2 0.30000000000000004
1.0 0.2 0.30000000000000004
0.0 0.30000000000000004 0.30000000000000004
0.1 0.30000000000000004 0.30000000000000004
0.2 0.30000000000000004 0.30000000000000004
0.30000000000000004 0.30000000000000004 0.30000000000000004
0.4 0.30000000000000004 0.30000000000000004
0.5 0.30000000000000004 0.30000000000000004
0.6000000000000001 0.30000000000000004 0.30000000000000004
0.7000000000000001 0.30000000000000004 0.30000000000000004
0.8 0.30000000000000004 0.30000000000000004
0.9 0.30000000000000004 0.30000000000000004
1.0 0.30000000000000004 0.30000000000000004
0.0 0.4 0.30000000000000004
0.1 0.4 0.30000000000000004
0.2 0.4 0.30000000000000004
0.30000000000000004 0.4 0.30000000000000004
0.4 0.4 0.30000000000000004
0.5 0.4 0.30000000000000004
0.6000000000000001 0.4 0.30000000000000004
0.7000000000000001 0.4 0.30000000000000004
0.8 0.4 0.30000000000000004
0.9 0.4 0.30000000000000004
1.0 0.4 0.30000000000000004
0.0 0.5 0.30000000000000004
0.1 0.5 0.30000000000000004
0.2 0.5 0.30000000000000004
0.30000000000000004 0.5 0.30000000000000004
0.4 0.5 0.30000000000000004
0.5 0.5 0.30000000000000004
0.6000000000000001 0.5 0.30000000000000004
0.7000000000000001 0.5 0.30000000000000004
0.8 0.5 0.30000000000000004
0.9 0.5 0.30000000000000004
1.0 0.5 0.30000000000000004
0.0 0.6000000000000001 0.30000000000000004
0.1 0.6000000000000001 0.30000000000000004
0.2 0.6000000000000001 0.30000000000000004
0.30000000000000004 0.6000000000000001 0.30000000000000004
[...]
POINT_DATA 1331
VECTORS Disp float
0.0 0.0 0.0
0.0 0.0 0.0
0.0 0.0 0.0
0.0 0.0 0.0
0.0 0.0 0.0
0.0 0.0 0.0
0.0 0.0 0.0
0.0 0.0 0.0
0.0 0.0 0.0
0.0 0.0 0.0
0.0 0.0 0.0
0.06406953208818979 0.01565115152062721 0.06325168630184684
0.05265974218504364 0.007203249572212352 0.030132724868934525
0.04987810720137286 0.0040241052715483915 0.020841456911496005
0.050852253168328414 0.0026299156914754225 0.01683224602738168
0.05351225719170509 0.002032533223128365 0.014941704059965364
0.05651154969384933 0.0017686847917702296 0.01377271065056289
0.05922587127748556 0.0015589081651310838 0.013054786928493755
0.06166424692954742 0.001322503579416483 0.012681602732983964
0.0637992862981034 0.0008742065397722188 0.011547864000598566
0.0659690418342655 0.001692270872198862 0.006262166849091938
0.05847476523136458 -0.0033466538015249005 -0.038571736853732504
0.14261144152941918 0.04491604393996137 0.08444182188447036
0.12247840051080819 0.01926021274289998 0.05151882674318142
0.11771576141568946 0.010056684601781475 0.03413771478908552
0.11924635537911034 0.00594383240187917 0.027433778998059932
0.12316102427759076 0.004320946574933924 0.024174902786832524
0.12735604421115382 0.0036395760061452517 0.022492018861655458
0.13094847079810776 0.003201479794666228 0.021613173873383636
0.1337510669185548 0.0026196064142454145 0.02081751462412261
0.13574245092577608 0.0015179644923967901 0.018545855910116628
0.1369666826747493 0.0009791078697976067 0.004867361466014046
0.11913803681228345 -0.016413662505564253 -0.03834593499978122
0.224760229728943 0.0689325731653301 0.08041577382470982
0.19990550991151554 0.029260241381990078 0.05742867165801761
0.19476175857264036 0.013874115808317038 0.041338962306920114
0.19738726941241308 0.0075694357035841755 0.03397362221642324
0.20268926586336466 0.005075545024795069 0.030616481042262122
0.2084974710756332 0.004044535528603194 0.029156685676062357
0.21404582578171014 0.0033753523434726413 0.028635601968311657
0.21915235664389862 0.0022908766294793314 0.028157808093193952
0.22379214287944177 7.305415835302603e-05 0.025239118845571087
0.2259411905364987 -0.005580309504714154 0.013015409719120151
0.2023286185329606 -0.035422369638122696 -0.01801837137116886
0.3142380855178452 0.07669065041142256 0.06312185292483785
0.2871042271527525 0.03143491087521587 0.05163750662215654
0.28340001358765843 0.013612804922076456 0.04222839088531268
0.2875881758171018 0.00661150144523184 0.036884954980306334
0.2941678702378637 0.003847501466195954 0.034342094960861366
0.3012777586242621 0.0026287270485629193 0.03336203074532986
0.30835751225619157 0.0016591496203575435 0.03326755199370328
0.3152170180298673 -0.00012524242393500076 0.03337815321190048
0.32140921973385567 -0.004287393307192191 0.03205590988904516
0.32259570220188705 -0.01592159593427627 0.02588904771952571
0.29605202918671003 -0.05524056965123503 0.010557629964283716
0.40816832323023466 0.07044585973495188 0.03860189331198688
0.3806871633307663 0.025856800224071653 0.03955467637659404
0.3795543440450249 0.009739250132481773 0.03818520370589914
0.3852432101993548 0.0036383043138921664 0.036279087731524454
0.3924605316711655 0.0011917771303384614 0.03504452651042816
0.4000000000000024 -9.0550720945933e-17 0.034629515990838446
0.40753946832883964 -0.001191777130338482 0.03504452651042824
0.4147567898006504 -0.0036383043138921234 0.03627908773152465
0.4204456559549805 -0.009739250132481577 0.03818520370589916
0.41931283666923935 -0.025856800224071386 0.03955467637659382
0.39183167676977104 -0.07044585973495154 0.03860189331198664
0.5039479708132959 0.05524056965123488 0.01055762996428378
0.47740429779811916 0.01592159593427631 0.025889047719525424
0.4785907802661505 0.004287393307192311 0.0320559098890449
0.48478298197013897 0.0001252424239350894 0.033378153211900026
0.49164248774381447 -0.0016591496203576409 0.033267551993702835
0.4987222413757438 -0.0026287270485631214 0.033362030745329445
0.5058321297621423 -0.0038475014661959266 0.034342094960860915
0.5124118241829041 -0.006611501445231839 0.036884954980305765
0.5165999864123472 -0.013612804922076416 0.0422283908853121
0.5128957728472533 -0.03143491087521553 0.05163750662215588
0.4857619144821606 -0.07669065041142203 0.06312185292483703
0.5976713814670448 0.03542236963812247 -0.018018371371168972
0.5740588094635071 0.005580309504714109 0.013015409719119523
0.5762078571205641 -7.3054158352933e-05 0.02523911884557038
0.5808476433561071 -0.0022908766294794953 0.02815780809319304
0.5859541742182957 -0.0033753523434727306 0.02863560196831087
0.5915025289243724 -0.004044535528603329 0.02915668567606166
0.597310734136641 -0.005075545024795107 0.030616481042261456
0.6026127305875927 -0.007569435703584169 0.03397362221642236
0.6052382414273652 -0.013874115808317124 0.04133896230691925
0.6000944900884901 -0.02926024138198983 0.057428671658016545
0.5752397702710629 -0.06893257316532973 0.08041577382470878
0.6808619631877207 0.01641366250556412 -0.03834593499978133
0.6630333173252554 -0.0009791078697976652 0.0048673614660132425
0.6642575490742287 -0.001517964492396717 0.018545855910115587
0.6662489330814496 -0.002619606414245621 0.020817514624121576
0.6690515292018966 -0.0032014797946663186 0.021613173873382845
0.6726439557888505 -0.00363957600614524 0.022492018861654695
0.6768389757224134 -0.004320946574933999 0.024174902786831758
0.6807536446208939 -0.005943832401879149 0.027433778998059134
0.6822842385843146 -0.010056684601781564 0.034137714789084714
0.6775215994891962 -0.01926021274289983 0.051518826743180486
0.6573885584705856 -0.044916043939961035 0.08444182188446915
0.7415252347686381 0.0033466538015249443 -0.038571736853732774
0.734030958165737 -0.0016922708721988815 0.0062621668490910306
0.7362007137018989 -0.0008742065397722136 0.011547864000597537
0.7383357530704545 -0.001322503579416566 0.012681602732983271
0.7407741287225162 -0.0015589081651311279 0.013054786928493172
0.7434884503061525 -0.0017686847917702047 0.013772710650562398
0.7464877428082968 -0.002032533223128407 0.014941704059964821
0.7491477468316734 -0.002629915691475431 0.016832246027381134
0.7501218927986288 -0.004024105271548426 0.020841456911495616
0.7473402578149582 -0.007203249572212191 0.030132724868934025
0.7359304679118127 -0.015651151520627005 0.06325168630184559
0.8000000000000002 0.0 0.0
0.8000000000000002 0.0 0.0
0.8000000000000002 0.0 0.0
0.8000000000000002 0.0 0.0
0.8000000000000002 0.0 0.0
0.8000000000000002 0.0 0.0
0.8000000000000002 0.0 0.0
0.8000000000000002 0.0 0.0
0.8000000000000002 0.0 0.0
0.8000000000000002 0.0 0.0
0.8000000000000002 0.0 0.0
0.0 0.0 0.0
0.0 0.0 0.0
0.0 0.0 0.0
0.0 0.0 0.0
0.0 0.0 0.0
0.0 0.0 0.0
0.0 0.0 0.0
0.0 0.0 0.0
0.0 0.0 0.0
0.0 0.0 0.0
0.0 0.0 0.0
0.07223561920959609 0.012377576987998998 0.04481619552106224
0.0630184470742781 0.00444935073989466 0.021621039965009883
0.06061842695237028 0.002221059032177825 0.014841700798483506
0.06066051536973374 0.0011703874008958596 0.01164507846108336
0.06211534242188426 0.0007481119084774822 0.01015229250650883
0.06416725969330886 0.0005238823554275896 0.009432342911400923
0.06648693621132502 0.0002969887147989292 0.009158942324551193
0.06912489557955731 -4.962993519901142e-05 0.009119827871256165
0.07213673115690498 -0.0008588490176669739 0.008610525185176122
0.07578534568182575 -0.0017839250849096086 0.003934780740910322
0.07308798096046562 -0.009552442147782725 -0.029873780263106456
0.1540894764242113 0.03955594854280472 0.061332378681249355
0.13482474370727568 0.015708990979866534 0.038445540674571996
0.12911657798439363 0.007824827265910219 0.025424751232214444
0.12866890683707918 0.004315724139735294 0.020452376943745215
0.13071160717153407 0.0027177083888785553 0.018150912159465078
0.1338568284694121 0.0017641550019684112 0.01723536725559683
0.1375073352622967 0.0008368326195283287 0.01697090071094442
0.14151418096197024 -0.0005497469147916867 0.016695765333822606
0.1457042199923883 -0.0030651542663360236 0.014916392197615898
0.14893387213670145 -0.007344693345947671 0.0034139846594889393
0.13747626322732379 -0.027480520999661008 -0.029567600836892145
0.23782236237395635 0.06561063312349727 0.059772906032527544
0.2123185708299366 0.028131298413397263 0.043724112548264554
0.20486892388927996 0.01347793502680749 0.031904707124073034
0.20510607229018868 0.007275767752327622 0.026396301159939538
0.2085471312197332 0.004239822809185386 0.02410398398088844
0.21340050455675585 0.0023553049246891633 0.023308484980903023
0.21883797026306076 0.000540119938783471 0.023137379160275175
0.22440263685935924 -0.002146576400349081 0.022722350881982357
0.22960555631237825 -0.00676819298954408 0.0198319522066903
0.23178286206838974 -0.016393098948108673 0.01001339798774777
0.21363956892521488 -0.04818630012669832 -0.014455016634549385
0.32586938506462226 0.07886342245209475 0.04801062080136943
0.2976121459429536 0.034698560944129694 0.04009745624002613
0.29066790355730265 0.01615643571919996 0.03323574292686329
0.29251013696979145 0.008244127292664948 0.029449527008920638
0.2975571361214598 0.004229583036670579 0.027814119585970805
0.30389929212712263 0.0016366553982397106 0.02729827865346714
0.3106308307797105 -0.0008974781881391775 0.02726415739698731
0.3170329131651833 -0.004623248409095899 0.02701028423361817
0.3220060081767631 -0.011337900326236683 0.02532429950123144
0.32112463179554895 -0.026324485672410965 0.020408116208953584
0.2973399455274861 -0.06691339898934918 0.007762993583565816
0.4152996478523816 0.07825863750948073 0.029525642455247043
0.38778476947067814 0.03341260437479555 0.03110351283658594
0.3833134042125072 0.015073715725876709 0.03028378900191586
0.386896662120034 0.007049839354959088 0.029350315794908943
0.39302693603307026 0.0028288802545400667 0.028791952849243223
0.4000000000000027 1.15554129782041e-16 0.028595069623205502
0.4069730639669351 -0.0028288802545398005 0.02879195284924323
0.4131033378799716 -0.007049839354958627 0.02935031579490907
0.4166865957874983 -0.015073715725876385 0.03028378900191585
0.4122152305293276 -0.03341260437479497 0.031103512836585752
0.3847003521476241 -0.07825863750948028 0.02952564245524667
0.5026600544725197 0.06691339898934923 0.0077629935835660325
0.47887536820445725 0.026324485672411392 0.020408116208953348
0.4779939918232429 0.011337900326236959 0.025324299501231114
0.4829670868348227 0.004623248409096143 0.02701028423361783
0.48936916922029555 0.0008974781881393299 0.02726415739698693
0.4961007078728834 -0.0016366553982394582 0.027298278653466766
0.502442863878546 -0.004229583036670325 0.027814119585970482
0.5074898630302144 -0.008244127292664499 0.029449527008920225
0.509332096442703 -0.016156435719199613 0.03323574292686288
0.5023878540570522 -0.034698560944129264 0.04009745624002553
0.47413061493538367 -0.07886342245209425 0.04801062080136873
0.5863604310747906 0.048186300126698146 -0.014455016634549364
0.5682171379316163 0.01639309894810882 0.01001339798774731
0.570394443687628 0.006768192989544361 0.019831952206689676
0.5755973631406466 0.002146576400349183 0.022722350881981584
0.5811620297369449 -0.000540119938783499 0.02313737916027448
0.58659949544325 -0.0023553049246889386 0.023308484980902336
0.5914528687802727 -0.004239822809185073 0.02410398398088774
0.5948939277098171 -0.007275767752327319 0.026396301159938795
0.5951310761107258 -0.013477935026807242 0.031904707124072326
0.5876814291700692 -0.02813129841339709 0.04372411254826373
0.5621776376260494 -0.06561063312349698 0.059772906032526676
0.6625237367726803 0.027480520999660966 -0.029567600836892277
0.6510661278633032 0.0073446933459477655 0.0034139846594881907
0.6542957800076165 0.003065154266336235 0.014916392197614987
0.6584858190380344 0.0005497469147917238 0.016695765333821742
0.6624926647377077 -0.0008368326195284018 0.0169709007109437
0.6661431715305923 -0.0017641550019683251 0.01723536725559612
0.6692883928284706 -0.0027177083888782535 0.018150912159464384
0.6713310931629254 -0.004315724139735154 0.020452376943744476
0.6708834220156109 -0.007824827265910122 0.025424751232213716
0.6651752562927289 -0.01570899097986651 0.03844554067457128
0.6459105235757936 -0.03955594854280463 0.061332378681248294
0.726912019039537 0.009552442147782713 -0.029873780263106494
0.7242146543181769 0.0017839250849096579 0.0039347807409096
0.7278632688430976 0.0008588490176670659 0.008610525185175374
0.730875104420445 4.962993519900794e-05 0.0091198278712555
0.7335130637886771 -0.0002969887147989439 0.009158942324550615
0.7358327403066932 -0.0005238823554276194 0.00943234291140041
0.7378846575781179 -0.0007481119084773232 0.010152292506508303
0.7393394846302684 -0.0011703874008957824 0.011645078461082897
0.7393815730476319 -0.0022210590321778065 0.014841700798483138
0.7369815529257241 -0.004449350739894631 0.021621039965009498
0.7277643807904063 -0.012377576987998946 0.044816195521061176
0.8000000000000002 0.0 0.0
0.8000000000000002 0.0 0.0
0.8000000000000002 0.0 0.0
0.8000000000000002 0.0 0.0
0.8000000000000002 0.0 0.0
0.8000000000000002 0.0 0.0
0.8000000000000002 0.0 0.0
0.8000000000000002 0.0 0.0
0.8000000000000002 0.0 0.0
0.8000000000000002 0.0 0.0
0.8000000000000002 0.0 0.0
0.0 0.0 0.0
0.0 0.0 0.0
0.0 0.0 0.0
0.0 0.0 0.0
0.0 0.0 0.0
0.0 0.0 0.0
0.0 0.0 0.0
0.0 0.0 0.0
0.0 0.0 0.0
0.0 0.0 0.0
0.0 0.0 0.0
0.07928735789167841 0.012523345564057955 0.030336276373793464
0.06885080205359587 0.004285740366988615 0.015484099023658335
0.06612784678380447 0.0023068486171209175 0.010886784903994402
0.06562249202766214 0.0011560931983501952 0.008383177254268058
0.06655026454679511 0.000669561944044915 0.007133401312323819
0.06817191030727625 0.0003553871456977898 0.006599194914303914
0.07028092185899497 3.0026076861774907e-05 0.006477889355963251
0.07297249370436888 -0.0004883726370467742 0.006569540169659555
0.07652129726097052 -0.0014244255843328165 0.0063940052878538045
0.08101800029339105 -0.002822848823178505 0.003217270201536734
0.0816303623076323 -0.00998920532361361 -0.019575283157878345
0.16105533253917162 0.038284341527148706 0.04228358858057602
0.1422022561073732 0.015637599001713156 0.0276947700008206
0.13595078937118305 0.007645021128927541 0.01851572603201362
0.13476922581530099 0.003959651266567495 0.014796066040274248
0.13619139632750044 0.002185678860007134 0.01308071737665033
0.1389542997606557 0.0010613332788890035 0.01249169254104347
0.1425366564678038 -6.483070308493393e-05 0.012430324259096726
0.1467458751756467 -0.0017651412188919601 0.012368080645345182
0.15153970516778706 -0.004575811748503152 0.01112207990482722
0.1557036427629944 -0.010122671564723875 0.0029807404410950354
0.15057179235648535 -0.028851132903917595 -0.019165707202148302
0.24295653956083826 0.06261698200386924 0.042046878437052446
0.21931694017345932 0.028263641450897298 0.03148714249351348
0.21114110627542695 0.013453851165232579 0.023371868522711607
0.2104026127573449 0.006938219253034315 0.019297534627415066
0.21306570612404183 0.003664547295286086 0.017694309750229717
0.21739894355370334 0.0015403464238569037 0.017221368658821717
0.22258125875154156 -0.0005519992230700909 0.017170601279929396
0.22804610554691657 -0.003568328454009875 0.016798446874380826
0.23319572547508505 -0.008655560529234099 0.014419411097528848
0.23527859223106848 -0.019701291636449566 0.00769210308554895
0.2234681016409202 -0.04892552726210317 -0.008529813031359485
0.32820094799590993 0.0756548222807563 0.03458398813552785
0.3031821757072777 0.035470348059356435 0.029136097681651006
0.29524169075897944 0.016725824386171324 0.024313258369870902
0.29590019469127643 0.008359357077988185 0.021677394935148697
0.30013406873200976 0.0040276370775081186 0.020646845541389527
0.30592198519954206 0.001126436768756668 0.0203826755515881
0.3122365881675886 -0.0017466184229693298 0.020340364251428263
0.31821637960963445 -0.005840705851033222 0.019915913017496813
0.32253638123124356 -0.013139511653919998 0.01838633228550965
0.3209577244361389 -0.02914280800258464 0.015164596271817191
0.30268249974149714 -0.0661658894065813 0.006817932475620105
0.41408474236342774 0.07608051463895234 0.0219355245393931
0.39097076061820085 0.035279849857741984 0.022878650976675383
0.38548411771516805 0.016382364104997098 0.02211531685099972
0.38800888464150896 0.007788427686209541 0.02167885764846112
0.393481401049612 0.0031785143536062544 0.021516673357605216
0.400000000000003 1.618137551281003e-16 0.021457863289610378
0.40651859895039405 -0.003178514353605966 0.021516673357605157
0.4119911153584973 -0.007788427686209048 0.021678857648461156
0.41451588228483827 -0.016382364104996643 0.02211531685099963
0.4090292393818056 -0.03527984985774147 0.02287865097667523
0.3859152576365786 -0.07608051463895195 0.021935524539392667
0.4973175002585088 0.06616588940658177 0.006817932475620368
0.47904227556386736 0.029142808002585285 0.015164596271817082
0.47746361876876237 0.013139511653920443 0.018386332285509413
0.4817836203903714 0.0058407058510337164 0.01991591301749652
0.487763411832417 0.0017466184229695757 0.020340364251427996
0.49407801480046354 -0.0011264367687564142 0.020382675551587837
0.499865931267996 -0.004027637077507791 0.020646845541389316
0.5040998053087294 -0.008359357077987703 0.02167739493514845
0.5047583092410264 -0.016725824386170852 0.024313258369870586
0.49681782429272825 -0.03547034805935599 0.029136097681650517
0.47179905200409616 -0.07565482228075575 0.03458398813552718
0.5765318983590855 0.048925527262103426 -0.008529813031359537
0.5647214077689378 0.019701291636450013 0.007692103085548612
0.5668042745249211 0.008655560529234423 0.014419411097528373
0.5719538944530895 0.0035683284540102547 0.016798446874380285
0.5774187412484643 0.0005519992230702166 0.017170601279928897
0.5826010564463023 -0.0015403464238567517 0.01722136865882112
0.5869342938759639 -0.0036645472952858455 0.017694309750229138
0.5895973872426609 -0.006938219253033923 0.01929753462741449
0.5888588937245787 -0.013453851165232228 0.023371868522711073
0.5806830598265462 -0.028263641450897107 0.03148714249351284
0.5570434604391674 -0.06261698200386881 0.04204687843705183
0.649428207643519 0.028851132903917727 -0.0191657072021484
0.6442963572370104 0.010122671564724201 0.0029807404410944487
0.6484602948322178 0.004575811748503344 0.011122079904826542
0.6532541248243581 0.0017651412188922232 0.01236808064534454
0.6574633435322006 6.483070308495555e-05 0.012430324259096145
0.6610457002393487 -0.0010613332788888697 0.012491692541042827
0.6638086036725039 -0.0021856788600070997 0.013080717376649767
0.6652307741847037 -0.003959651266567195 0.014796066040273679
0.6640492106288215 -0.007645021128927374 0.018515726032013097
0.6577977438926312 -0.015637599001713125 0.027694770000819987
0.638944667460833 -0.03828434152714861 0.04228358858057517
0.7183696376923695 0.009989205323613673 -0.01957528315787851
0.7189819997066113 0.0028228488231787138 0.0032172702015361146
0.7234787027390317 0.0014244255843328766 0.006394005287853254
0.7270275062956334 0.0004883726370468759 0.006569540169659116
0.7297190781410071 -3.0026076861815293e-05 0.0064778893559627355
0.7318280896927258 -0.00035538714569772204 0.006599194914303451
0.7334497354532069 -0.0006695619440449408 0.007133401312323398
0.7343775079723399 -0.0011560931983501015 0.008383177254267741
0.7338721532161976 -0.002306848617120841 0.010886784903994055
0.7311491979464063 -0.004285740366988593 0.015484099023658016
0.7207126421083238 -0.012523345564057905 0.030336276373792517
0.8000000000000002 0.0 0.0
0.8000000000000002 0.0 0.0
0.8000000000000002 0.0 0.0
0.8000000000000002 0.0 0.0
0.8000000000000002 0.0 0.0
0.8000000000000002 0.0 0.0
0.8000000000000002 0.0 0.0
0.8000000000000002 0.0 0.0
0.8000000000000002 0.0 0.0
0.8000000000000002 0.0 0.0
0.8000000000000002 0.0 0.0
0.0 0.0 0.0
0.0 0.0 0.0
0.0 0.0 0.0
0.0 0.0 0.0
0.0 0.0 0.0
0.0 0.0 0.0
0.0 0.0 0.0
0.0 0.0 0.0
0.0 0.0 0.0
0.0 0.0 0.0
0.0 0.0 0.0
0.08295408033428844 0.012267355070893802 0.01846461096567787
0.07162375792220393 0.003959508431859381 0.010017480573473703
0.06899893236057161 0.002225613137753291 0.007266810847666086