# vtk DataFile Version 3.0
Some data
ASCII
DATASET UNSTRUCTURED_GRID
POINTS 1331 float
0.0 0.0 0.0
0.1 0.0 0.0
0.2 0.0 0.0
0.30000000000000004 0.0 0.0
0.4 0.0 0.0
0.5 0.0 0.0
0.6000000000000001 0.0 0.0
0.7000000000000001 0.0 0.0
0.8 0.0 0.0
0.9 0.0 0.0
1.0 0.0 0.0
0.0 0.1 0.0
0.1 0.1 0.0
0.2 0.1 0.0
0.30000000000000004 0.1 0.0
0.4 0.1 0.0
0.5 0.1 0.0
0.6000000000000001 0.1 0.0
0.7000000000000001 0.1 0.0
0.8 0.1 0.0
0.9 0.1 0.0
1.0 0.1 0.0
0.0 0.2 0.0
0.1 0.2 0.0
0.2 0.2 0.0
0.30000000000000004 0.2 0.0
0.4 0.2 0.0
0.5 0.2 0.0
0.6000000000000001 0.2 0.0
0.7000000000000001 0.2 0.0
0.8 0.2 0.0
0.9 0.2 0.0
1.0 0.2 0.0
0.0 0.30000000000000004 0.0
0.1 0.30000000000000004 0.0
0.2 0.30000000000000004 0.0
0.30000000000000004 0.30000000000000004 0.0
0.4 0.30000000000000004 0.0
0.5 0.30000000000000004 0.0
0.6000000000000001 0.30000000000000004 0.0
0.7000000000000001 0.30000000000000004 0.0
0.8 0.30000000000000004 0.0
0.9 0.30000000000000004 0.0
1.0 0.30000000000000004 0.0
0.0 0.4 0.0
0.1 0.4 0.0
0.2 0.4 0.0
0.30000000000000004 0.4 0.0
0.4 0.4 0.0
0.5 0.4 0.0
0.6000000000000001 0.4 0.0
0.7000000000000001 0.4 0.0
0.8 0.4 0.0
0.9 0.4 0.0
1.0 0.4 0.0
0.0 0.5 0.0
0.1 0.5 0.0
0.2 0.5 0.0
0.30000000000000004 0.5 0.0
0.4 0.5 0.0
0.5 0.5 0.0
0.6000000000000001 0.5 0.0
0.7000000000000001 0.5 0.0
0.8 0.5 0.0
0.9 0.5 0.0
1.0 0.5 0.0
0.0 0.6000000000000001 0.0
0.1 0.6000000000000001 0.0
0.2 0.6000000000000001 0.0
0.30000000000000004 0.6000000000000001 0.0
0.4 0.6000000000000001 0.0
0.5 0.6000000000000001 0.0
0.6000000000000001 0.6000000000000001 0.0
0.7000000000000001 0.6000000000000001 0.0
0.8 0.6000000000000001 0.0
0.9 0.6000000000000001 0.0
1.0 0.6000000000000001 0.0
0.0 0.7000000000000001 0.0
0.1 0.7000000000000001 0.0
0.2 0.7000000000000001 0.0
0.30000000000000004 0.7000000000000001 0.0
0.4 0.7000000000000001 0.0
0.5 0.7000000000000001 0.0
0.6000000000000001 0.7000000000000001 0.0
0.7000000000000001 0.7000000000000001 0.0
0.8 0.7000000000000001 0.0
0.9 0.7000000000000001 0.0
1.0 0.7000000000000001 0.0
0.0 0.8 0.0
0.1 0.8 0.0
0.2 0.8 0.0
0.30000000000000004 0.8 0.0
0.4 0.8 0.0
0.5 0.8 0.0
0.6000000000000001 0.8 0.0
0.7000000000000001 0.8 0.0
0.8 0.8 0.0
0.9 0.8 0.0
1.0 0.8 0.0
0.0 0.9 0.0
0.1 0.9 0.0
0.2 0.9 0.0
0.30000000000000004 0.9 0.0
0.4 0.9 0.0
0.5 0.9 0.0
0.6000000000000001 0.9 0.0
0.7000000000000001 0.9 0.0
0.8 0.9 0.0
0.9 0.9 0.0
1.0 0.9 0.0
0.0 1.0 0.0
0.1 1.0 0.0
0.2 1.0 0.0
0.30000000000000004 1.0 0.0
0.4 1.0 0.0
0.5 1.0 0.0
0.6000000000000001 1.0 0.0
0.7000000000000001 1.0 0.0
0.8 1.0 0.0
0.9 1.0 0.0
1.0 1.0 0.0
0.0 0.0 0.1
0.1 0.0 0.1
0.2 0.0 0.1
0.30000000000000004 0.0 0.1
0.4 0.0 0.1
0.5 0.0 0.1
0.6000000000000001 0.0 0.1
0.7000000000000001 0.0 0.1
0.8 0.0 0.1
0.9 0.0 0.1
1.0 0.0 0.1
0.0 0.1 0.1
0.1 0.1 0.1
0.2 0.1 0.1
0.30000000000000004 0.1 0.1
0.4 0.1 0.1
0.5 0.1 0.1
0.6000000000000001 0.1 0.1
0.7000000000000001 0.1 0.1
0.8 0.1 0.1
0.9 0.1 0.1
1.0 0.1 0.1
0.0 0.2 0.1
0.1 0.2 0.1
0.2 0.2 0.1
0.30000000000000004 0.2 0.1
0.4 0.2 0.1
0.5 0.2 0.1
0.6000000000000001 0.2 0.1
0.7000000000000001 0.2 0.1
0.8 0.2 0.1
0.9 0.2 0.1
1.0 0.2 0.1
0.0 0.30000000000000004 0.1
0.1 0.30000000000000004 0.1
0.2 0.30000000000000004 0.1
0.30000000000000004 0.30000000000000004 0.1
0.4 0.30000000000000004 0.1
0.5 0.30000000000000004 0.1
0.6000000000000001 0.30000000000000004 0.1
0.7000000000000001 0.30000000000000004 0.1
0.8 0.30000000000000004 0.1
0.9 0.30000000000000004 0.1
1.0 0.30000000000000004 0.1
0.0 0.4 0.1
0.1 0.4 0.1
0.2 0.4 0.1
0.30000000000000004 0.4 0.1
0.4 0.4 0.1
0.5 0.4 0.1
0.6000000000000001 0.4 0.1
0.7000000000000001 0.4 0.1
0.8 0.4 0.1
0.9 0.4 0.1
1.0 0.4 0.1
0.0 0.5 0.1
0.1 0.5 0.1
0.2 0.5 0.1
0.30000000000000004 0.5 0.1
0.4 0.5 0.1
0.5 0.5 0.1
0.6000000000000001 0.5 0.1
0.7000000000000001 0.5 0.1
0.8 0.5 0.1
0.9 0.5 0.1
1.0 0.5 0.1
0.0 0.6000000000000001 0.1
0.1 0.6000000000000001 0.1
0.2 0.6000000000000001 0.1
0.30000000000000004 0.6000000000000001 0.1
0.4 0.6000000000000001 0.1
0.5 0.6000000000000001 0.1
0.6000000000000001 0.6000000000000001 0.1
0.7000000000000001 0.6000000000000001 0.1
0.8 0.6000000000000001 0.1
0.9 0.6000000000000001 0.1
1.0 0.6000000000000001 0.1
0.0 0.7000000000000001 0.1
0.1 0.7000000000000001 0.1
0.2 0.7000000000000001 0.1
0.30000000000000004 0.7000000000000001 0.1
0.4 0.7000000000000001 0.1
0.5 0.7000000000000001 0.1
0.6000000000000001 0.7000000000000001 0.1
0.7000000000000001 0.7000000000000001 0.1
0.8 0.7000000000000001 0.1
0.9 0.7000000000000001 0.1
1.0 0.7000000000000001 0.1
0.0 0.8 0.1
0.1 0.8 0.1
0.2 0.8 0.1
0.30000000000000004 0.8 0.1
0.4 0.8 0.1
0.5 0.8 0.1
0.6000000000000001 0.8 0.1
0.7000000000000001 0.8 0.1
0.8 0.8 0.1
0.9 0.8 0.1
1.0 0.8 0.1
0.0 0.9 0.1
0.1 0.9 0.1
0.2 0.9 0.1
0.30000000000000004 0.9 0.1
0.4 0.9 0.1
0.5 0.9 0.1
0.6000000000000001 0.9 0.1
0.7000000000000001 0.9 0.1
0.8 0.9 0.1
0.9 0.9 0.1
1.0 0.9 0.1
0.0 1.0 0.1
0.1 1.0 0.1
0.2 1.0 0.1
0.30000000000000004 1.0 0.1
0.4 1.0 0.1
0.5 1.0 0.1
0.6000000000000001 1.0 0.1
0.7000000000000001 1.0 0.1
0.8 1.0 0.1
0.9 1.0 0.1
1.0 1.0 0.1
0.0 0.0 0.2
0.1 0.0 0.2
0.2 0.0 0.2
0.30000000000000004 0.0 0.2
0.4 0.0 0.2
0.5 0.0 0.2
0.6000000000000001 0.0 0.2
0.7000000000000001 0.0 0.2
0.8 0.0 0.2
0.9 0.0 0.2
1.0 0.0 0.2
0.0 0.1 0.2
0.1 0.1 0.2
0.2 0.1 0.2
0.30000000000000004 0.1 0.2
0.4 0.1 0.2
0.5 0.1 0.2
0.6000000000000001 0.1 0.2
0.7000000000000001 0.1 0.2
0.8 0.1 0.2
0.9 0.1 0.2
1.0 0.1 0.2
0.0 0.2 0.2
0.1 0.2 0.2
0.2 0.2 0.2
0.30000000000000004 0.2 0.2
0.4 0.2 0.2
0.5 0.2 0.2
0.6000000000000001 0.2 0.2
0.7000000000000001 0.2 0.2
0.8 0.2 0.2
0.9 0.2 0.2
1.0 0.2 0.2
0.0 0.30000000000000004 0.2
0.1 0.30000000000000004 0.2
0.2 0.30000000000000004 0.2
0.30000000000000004 0.30000000000000004 0.2
0.4 0.30000000000000004 0.2
0.5 0.30000000000000004 0.2
0.6000000000000001 0.30000000000000004 0.2
0.7000000000000001 0.30000000000000004 0.2
0.8 0.30000000000000004 0.2
0.9 0.30000000000000004 0.2
1.0 0.30000000000000004 0.2
0.0 0.4 0.2
0.1 0.4 0.2
0.2 0.4 0.2
0.30000000000000004 0.4 0.2
0.4 0.4 0.2
0.5 0.4 0.2
0.6000000000000001 0.4 0.2
0.7000000000000001 0.4 0.2
0.8 0.4 0.2
0.9 0.4 0.2
1.0 0.4 0.2
0.0 0.5 0.2
0.1 0.5 0.2
0.2 0.5 0.2
0.30000000000000004 0.5 0.2
0.4 0.5 0.2
0.5 0.5 0.2
0.6000000000000001 0.5 0.2
0.7000000000000001 0.5 0.2
0.8 0.5 0.2
0.9 0.5 0.2
1.0 0.5 0.2
0.0 0.6000000000000001 0.2
0.1 0.6000000000000001 0.2
0.2 0.6000000000000001 0.2
0.30000000000000004 0.6000000000000001 0.2
0.4 0.6000000000000001 0.2
0.5 0.6000000000000001 0.2
0.6000000000000001 0.6000000000000001 0.2
0.7000000000000001 0.6000000000000001 0.2
0.8 0.6000000000000001 0.2
0.9 0.6000000000000001 0.2
1.0 0.6000000000000001 0.2
0.0 0.7000000000000001 0.2
0.1 0.7000000000000001 0.2
0.2 0.7000000000000001 0.2
0.30000000000000004 0.7000000000000001 0.2
0.4 0.7000000000000001 0.2
0.5 0.7000000000000001 0.2
0.6000000000000001 0.7000000000000001 0.2
0.7000000000000001 0.7000000000000001 0.2
0.8 0.7000000000000001 0.2
0.9 0.7000000000000001 0.2
1.0 0.7000000000000001 0.2
0.0 0.8 0.2
0.1 0.8 0.2
0.2 0.8 0.2
0.30000000000000004 0.8 0.2
0.4 0.8 0.2
0.5 0.8 0.2
0.6000000000000001 0.8 0.2
0.7000000000000001 0.8 0.2
0.8 0.8 0.2
0.9 0.8 0.2
1.0 0.8 0.2
0.0 0.9 0.2
0.1 0.9 0.2
0.2 0.9 0.2
0.30000000000000004 0.9 0.2
0.4 0.9 0.2
0.5 0.9 0.2
0.6000000000000001 0.9 0.2
0.7000000000000001 0.9 0.2
0.8 0.9 0.2
0.9 0.9 0.2
1.0 0.9 0.2
0.0 1.0 0.2
0.1 1.0 0.2
0.2 1.0 0.2
0.30000000000000004 1.0 0.2
0.4 1.0 0.2
0.5 1.0 0.2
0.6000000000000001 1.0 0.2
0.7000000000000001 1.0 0.2
0.8 1.0 0.2
0.9 1.0 0.2
1.0 1.0 0.2
0.0 0.0 0.30000000000000004
0.1 0.0 0.30000000000000004
0.2 0.0 0.30000000000000004
0.30000000000000004 0.0 0.30000000000000004
0.4 0.0 0.30000000000000004
0.5 0.0 0.30000000000000004
0.6000000000000001 0.0 0.30000000000000004
0.7000000000000001 0.0 0.30000000000000004
0.8 0.0 0.30000000000000004
0.9 0.0 0.30000000000000004
1.0 0.0 0.30000000000000004
0.0 0.1 0.30000000000000004
0.1 0.1 0.30000000000000004
0.2 0.1 0.30000000000000004
0.30000000000000004 0.1 0.30000000000000004
0.4 0.1 0.30000000000000004
0.5 0.1 0.30000000000000004
0.6000000000000001 0.1 0.30000000000000004
0.7000000000000001 0.1 0.30000000000000004
0.8 0.1 0.30000000000000004
0.9 0.1 0.30000000000000004
1.0 0.1 0.30000000000000004
0.0 0.2 0.30000000000000004
0.1 0.2 0.30000000000000004
0.2 0.2 0.30000000000000004
0.30000000000000004 0.2 0.30000000000000004
0.4 0.2 0.30000000000000004
0.5 0.2 0.30000000000000004
0.6000000000000001 0.2 0.30000000000000004
0.7000000000000001 0.2 0.30000000000000004
0.8 0.2 0.30000000000000004
0.9 0.2 0.30000000000000004
1.0 0.2 0.30000000000000004
0.0 0.30000000000000004 0.30000000000000004
0.1 0.30000000000000004 0.30000000000000004
0.2 0.30000000000000004 0.30000000000000004
0.30000000000000004 0.30000000000000004 0.30000000000000004
0.4 0.30000000000000004 0.30000000000000004
0.5 0.30000000000000004 0.30000000000000004
0.6000000000000001 0.30000000000000004 0.30000000000000004
0.7000000000000001 0.30000000000000004 0.30000000000000004
0.8 0.30000000000000004 0.30000000000000004
0.9 0.30000000000000004 0.30000000000000004
1.0 0.30000000000000004 0.30000000000000004
0.0 0.4 0.30000000000000004
0.1 0.4 0.30000000000000004
0.2 0.4 0.30000000000000004
0.30000000000000004 0.4 0.30000000000000004
0.4 0.4 0.30000000000000004
0.5 0.4 0.30000000000000004
0.6000000000000001 0.4 0.30000000000000004
0.7000000000000001 0.4 0.30000000000000004
0.8 0.4 0.30000000000000004
0.9 0.4 0.30000000000000004
1.0 0.4 0.30000000000000004
0.0 0.5 0.30000000000000004
0.1 0.5 0.30000000000000004
0.2 0.5 0.30000000000000004
0.30000000000000004 0.5 0.30000000000000004
0.4 0.5 0.30000000000000004
0.5 0.5 0.30000000000000004
0.6000000000000001 0.5 0.30000000000000004
0.7000000000000001 0.5 0.30000000000000004
0.8 0.5 0.30000000000000004
0.9 0.5 0.30000000000000004
1.0 0.5 0.30000000000000004
0.0 0.6000000000000001 0.30000000000000004
0.1 0.6000000000000001 0.30000000000000004
0.2 0.6000000000000001 0.30000000000000004
0.30000000000000004 0.6000000000000001 0.30000000000000004
[...]
POINT_DATA 1331
VECTORS Disp float
0.0 0.0 0.0
0.0 0.0 0.0
0.0 0.0 0.0
0.0 0.0 0.0
0.0 0.0 0.0
0.0 0.0 0.0
0.0 0.0 0.0
0.0 0.0 0.0
0.0 0.0 0.0
0.0 0.0 0.0
0.0 0.0 0.0
0.054898066501478215 0.014963097457173172 0.05642513358108124
0.044620849197612965 0.00687511468548865 0.026685772817808543
0.041811204380202985 0.0038951817809833172 0.018027774207301547
0.04237275726328731 0.002480521546107408 0.014007025617254913
0.04439487498653078 0.0018645252621761488 0.01171633641969085
0.04650783237046456 0.0015941431568535904 0.009996038334118473
0.04805802234135028 0.0014182672132809783 0.008647602274508054
0.04904345989748886 0.0012133974412707423 0.007665092618317328
0.04964990240298026 0.0006988645428924115 0.006286870853748669
0.05033048074940428 0.0012485968877266472 0.0011649869075973454
0.04316854857278626 -0.0044951331680530265 -0.040426566326409785
0.11727043362216673 0.04264083317038807 0.0726074092749415
0.10093155393627096 0.018619708400275603 0.04406190287342935
0.09671872390086109 0.009715050339035565 0.02824379981236791
0.09769108495846039 0.005632284544119101 0.02168908969423064
0.10050139586837932 0.003951882518660166 0.01799084856080642
0.10334465606069958 0.0032495833297683146 0.01564381130370774
0.10546866630437966 0.002852577851390555 0.014043752188037554
0.10675759351400096 0.0022848477668855104 0.012677672798721677
0.1073936346281281 0.0010577326770455746 0.010357245370852553
0.10756035527256445 -0.0001509590732529187 -0.0018301047151498282
0.09297244216671746 -0.018199980009231932 -0.0397766805706205
0.18398094772017837 0.06426161443506251 0.06711355648526979
0.1646881944885797 0.028003954668111952 0.04680256632872382
0.16020988887522045 0.013351803447132774 0.03233839390486039
0.16178873768308183 0.007199211599647142 0.02522510888619739
0.16536799975370853 0.004653433765150986 0.021491447075786187
0.16923038244616037 0.0035724214671398608 0.01941957071066789
0.1727592161320577 0.0028879863664751752 0.018243844734803862
0.17583689047332104 0.0017601817213508827 0.017276847365884224
0.17861543918342399 -0.0006485999451270018 0.014474264694193766
0.17988585098630783 -0.006725344251114046 0.004389173630064847
0.16172732273918158 -0.03642235385107004 -0.021092405775345487
0.25718806942778094 0.07187627149739663 0.05077865578175885
0.23662922339814713 0.030181573764596258 0.039533915650696555
0.2332781257857664 0.013288158641495814 0.030843563623246004
0.23580549468213574 0.006432799893001948 0.02561283795892178
0.2400974337760554 0.003595744999955812 0.02280304061039806
0.24474390319222436 0.002300977550771785 0.021431996978498593
0.24928907223936714 0.0012664016358584227 0.020943100081210628
0.2535946996356234 -0.00060333483315728 0.020768188546665532
0.2574435554363267 -0.004926474955431817 0.019649505999207874
0.25815677460883024 -0.016338806917680405 0.015131758830962412
0.2384437981727221 -0.054390611111776316 0.0042399982987893995
0.3338284024586496 0.06727772378000511 0.028674778376847735
0.3133908184064959 0.02528385113752518 0.027426591719509657
0.3121630181750521 0.009919280427066168 0.025535965324958252
0.31559641773654346 0.0038131822972701755 0.02351978372110618
0.32016251019335773 0.0012734145815475148 0.022274316461473116
0.3249999999999964 9.004210608453792e-17 0.0218556837693283
0.3298374898066352 -0.0012734145815471371 0.022274316461473227
0.3344035822634495 -0.0038131822972697865 0.0235197837211064
0.3378369818249412 -0.009919280427065637 0.025535965324958373
0.3366091815934975 -0.025283851137524634 0.027426591719509716
0.31617159754134383 -0.06727772378000466 0.028674778376847516
0.411556201827272 0.05439061111177669 0.004239998298789773
0.3918432253911637 0.01633880691768081 0.015131758830962468
0.3925564445636673 0.004926474955432256 0.019649505999207978
0.39640530036437055 0.0006033348331577106 0.02076818854666564
0.4007109277606268 -0.0012664016358581315 0.020943100081210742
0.40525609680776953 -0.0023009775507716237 0.02143199697849879
0.40990256622393867 -0.003595744999955458 0.022803040610398232
0.4141945053178584 -0.00643279989300161 0.025612837958921917
0.41672187421422763 -0.01328815864149545 0.03084356362324624
0.41337077660184707 -0.03018157376459582 0.039533915650696895
0.3928119305722128 -0.07187627149739659 0.050778655781758955
0.4882726772608132 0.03642235385107028 -0.02109240577534545
0.47011414901368676 0.006725344251114215 0.004389173630064952
0.4713845608165708 0.0006485999451273793 0.01447426469419404
0.47416310952667373 -0.0017601817213506107 0.017276847365884373
0.4772407838679372 -0.002887986366474952 0.01824384473480411
0.48076961755383457 -0.0035724214671397 0.019419570710668244
0.48463200024628666 -0.004653433765150782 0.02149144707578658
0.48821126231691353 -0.007199211599646913 0.025225108886197684
0.489790111124775 -0.013351803447132599 0.032338393904860846
0.48531180551141584 -0.028003954668111723 0.04680256632872462
0.46601905227981666 -0.06426161443506286 0.06711355648527077
0.5570275578332782 0.018199980009231863 -0.03977668057062096
0.542439644727431 0.00015095907325288118 -0.0018301047151497618
0.5426063653718678 -0.0010577326770452094 0.010357245370852898
0.5432424064859949 -0.0022848477668854323 0.012677672798722006
0.5445313336956163 -0.0028525778513904527 0.014043752188038064
0.5466553439392966 -0.0032495833297681376 0.0156438113037082
0.5494986041316171 -0.003951882518660114 0.017990848560806846
0.5523089150415362 -0.005632284544118968 0.021689089694231122
0.5532812760991357 -0.009715050339035575 0.028243799812368565
0.549068446063726 -0.01861970840027549 0.0440619028734305
0.5327295663778298 -0.04264083317038853 0.07260740927494337
0.6068314514272107 0.004495133168052809 -0.040426566326410604
0.5996695192505925 -0.0012485968877266945 0.001164986907597544
0.6003500975970169 -0.0006988645428922476 0.0062868708537488546
0.6009565401025084 -0.0012133974412707345 0.007665092618317698
0.6019419776586473 -0.001418267213280944 0.008647602274508448
0.6034921676295333 -0.0015941431568535338 0.009996038334118811
0.6056051250134673 -0.0018645252621761203 0.011716336419691116
0.6076272427367109 -0.002480521546107405 0.014007025617255215
0.6081887956197952 -0.0038951817809833333 0.01802777420730207
0.6053791508023854 -0.006875114685488655 0.02668577281780941
0.59510193349852 -0.01496309745717333 0.056425133581083205
0.65 0.0 0.0
0.65 0.0 0.0
0.65 0.0 0.0
0.65 0.0 0.0
0.65 0.0 0.0
0.65 0.0 0.0
0.65 0.0 0.0
0.65 0.0 0.0
0.65 0.0 0.0
0.65 0.0 0.0
0.65 0.0 0.0
0.0 0.0 0.0
0.0 0.0 0.0
0.0 0.0 0.0
0.0 0.0 0.0
0.0 0.0 0.0
0.0 0.0 0.0
0.0 0.0 0.0
0.0 0.0 0.0
0.0 0.0 0.0
0.0 0.0 0.0
0.0 0.0 0.0
0.06289708731283748 0.01211696618251146 0.03951311419969981
0.05411236967518235 0.0043947766680936 0.019141290664366498
0.05128995382027058 0.002268372189255644 0.012769995604666903
0.050727294013300894 0.001204124888133535 0.009565453730851502
0.051436713752384795 0.0007629895361411648 0.007818272830100328
0.05260195227553957 0.0005320035233259222 0.006745826270810454
0.05388044599787784 0.0003249133262664276 0.0060498223265028715
0.055331519240823725 5.701773972084136e-06 0.0055534189447176896
0.057194712596460584 -0.0007564530741562906 0.004760220219076944
0.05985511074856043 -0.0017817172786313248 0.00031693855853807225
0.05784084840197794 -0.010017479816207408 -0.029910679952888878
0.12893899434724382 0.03822693263739361 0.052094226258916555
0.11243963117225181 0.015719428871562423 0.03267172227930506
0.106670536251133 0.007901137977720454 0.020903923349964718
0.10546700334239058 0.004344477684507584 0.015994542190590114
0.10642673867949183 0.0026704640013918168 0.013352015592355729
0.10830054048151305 0.0017118449416260793 0.011913681023845943
0.11052836246991969 0.0008474670708731357 0.011072283082311094
0.11304814164325414 -0.00046891249113803957 0.010286805785011524
0.1160319027080437 -0.0029390354821983516 0.008355282352442244
0.11879321516348168 -0.007689953309835663 -0.0017415844937626436
0.11077279397343417 -0.028468737361153473 -0.029797965700339532
0.19664471272088757 0.062146247886418204 0.049469922178005145
0.17606109646246293 0.02767810099617731 0.03543114825494193
0.16896648374971235 0.013392946081058487 0.02487027860244717
0.16814585105132143 0.007143048082863508 0.019487166223401013
0.1700292269660694 0.004044938165061179 0.01683918674387682
0.17308848729914822 0.0022077427323884324 0.015531602851176881
0.1766000783298015 0.0005224262529765941 0.014851772232304626
0.18025309959590372 -0.0020388199302707674 0.014062379419057622
0.18387740095830624 -0.006695222957268695 0.011298175328540789
0.18560350579903767 -0.016845853683505028 0.0032657542343332404
0.1725569351832535 -0.048683978624707136 -0.016158697703794165
0.26772501384542924 0.07464853584555711 0.03817503507761565
0.2458685778935736 0.033908055754872025 0.03051603644711768
0.23944278342915104 0.015930578069604885 0.02417979351284703
0.23981855104916144 0.007995844281819053 0.020407137398048194
0.24278606260400776 0.003978952301403513 0.018490806295092834
0.24681289089674008 0.001505683662247576 0.01763980772139234
0.25115599166855107 -0.0008559281946667486 0.017323414115242398
0.2552909020909892 -0.004453841534123836 0.016931355446742805
0.25842465124224306 -0.011226929829822499 0.015503581165900709
0.2573680296977882 -0.026309401799887798 0.01184570841110048
0.23979497545848605 -0.06566651613051655 0.0029776438136233816
0.3399803406893574 0.0750258979283064 0.021536004400738457
0.31919330892660996 0.03282538313971403 0.021435653641506035
0.3149956053582722 0.014861876452846041 0.020216291745931408
0.31680032921075285 0.006814056096372749 0.01910251539427156
0.32057036688448426 0.002661852086085686 0.01843296237090099
0.3249999999999964 7.397512991504057e-17 0.018201287320856012
0.3294296331155087 -0.0026618520860854198 0.018432962370901054
0.33319967078924034 -0.006814056096372357 0.01910251539427167
0.33500439464172094 -0.014861876452845748 0.020216291745931456
0.33080669107338345 -0.032825383139713685 0.021435653641505965
0.31001965931063596 -0.07502589792830633 0.02153600440073819
0.410205024541508 0.0656665161305167 0.0029776438136237303
0.3926319703022057 0.026309401799888197 0.011845708411100647
0.39157534875775074 0.01122692982982281 0.015503581165900827
0.3947090979090046 0.0044538415341240966 0.016931355446742923
0.39884400833144273 0.000855928194666926 0.017323414115242554
0.40318710910325384 -0.0015056836622474494 0.017639807721392484
0.40721393739598627 -0.003978952301403277 0.018490806295093032
0.41018144895083264 -0.007995844281818746 0.020407137398048374
0.410557216570843 -0.015930578069604656 0.02417979351284725
0.40413142210642045 -0.033908055754871935 0.030516036447117905
0.38227498615456457 -0.07464853584555738 0.03817503507761577
0.4774430648167413 0.048683978624707275 -0.016158697703794116
0.464396494200957 0.01684585368350527 0.0032657542343334195
0.46612259904168857 0.006695222957269013 0.011298175328541044
0.469746900404091 0.0020388199302709014 0.01406237941905782
0.4733999216701932 -0.0005224262529765604 0.014851772232304885
0.4769115127008467 -0.0022077427323883075 0.01553160285117714
0.4799707730339257 -0.004044938165060924 0.016839186743877108
0.4818541489486738 -0.007143048082863296 0.019487166223401256
0.4810335162502829 -0.013392946081058362 0.024870278602447574
0.47393890353753226 -0.027678100996177395 0.035431148254942486
0.4533552872791072 -0.062146247886418864 0.049469922178005915
0.5392272060265615 0.028468737361153577 -0.029797965700339935
0.5312067848365137 0.007689953309835775 -0.0017415844937625788
0.5339680972919519 0.002939035482198609 0.008355282352442539
0.5369518583567415 0.0004689124911381549 0.010286805785011845
0.5394716375300761 -0.0008474670708731433 0.01107228308231151
0.5416994595184829 -0.0017118449416260368 0.011913681023846287
0.5435732613205044 -0.0026704640013915965 0.013352015592356048
0.5445329966576059 -0.004344477684507465 0.015994542190590447
0.5433294637488635 -0.007901137977720447 0.020903923349965183
0.5375603688277447 -0.015719428871562545 0.03267172227930596
0.5210610056527523 -0.03822693263739422 0.05209422625891806
0.5921591515980194 0.01001747981620741 -0.029910679952889586
0.5901448892514365 0.0017817172786313408 0.000316938558538248
0.5928052874035366 0.000756453074156378 0.004760220219077255
0.5946684807591734 -5.701773972075587e-06 0.005553418944717976
0.5961195540021195 -0.0003249133262664545 0.006049822326503113
0.5973980477244579 -0.0005320035233259112 0.006745826270810699
0.598563286247613 -0.0007629895361410971 0.007818272830100545
0.599272705986697 -0.0012041248881334641 0.009565453730851775
0.5987100461797275 -0.002268372189255671 0.012769995604667291
0.5958876303248156 -0.004394776668093636 0.019141290664367157
0.5871029126871603 -0.012116966182511655 0.039513114199701216
0.65 0.0 0.0
0.65 0.0 0.0
0.65 0.0 0.0
0.65 0.0 0.0
0.65 0.0 0.0
0.65 0.0 0.0
0.65 0.0 0.0
0.65 0.0 0.0
0.65 0.0 0.0
0.65 0.0 0.0
0.65 0.0 0.0
0.0 0.0 0.0
0.0 0.0 0.0
0.0 0.0 0.0
0.0 0.0 0.0
0.0 0.0 0.0
0.0 0.0 0.0
0.0 0.0 0.0
0.0 0.0 0.0
0.0 0.0 0.0
0.0 0.0 0.0
0.0 0.0 0.0
0.06950016256664009 0.01230352592753293 0.026278877811764027
0.05933823462887491 0.004325228834313106 0.013690345714232676
0.0560873486353665 0.0024077412516078905 0.009394676972819569
0.054944072405963586 0.0012501101638203583 0.0069029483247543865
0.0551165953817847 0.0007453767540007125 0.005506100331590125
0.05589250405980552 0.00043236828306471374 0.004741167441785397
0.05704557629348247 0.00013375093299931794 0.0043215386777806985
0.05866651353892454 -0.0003485151851155778 0.004047488374986152
0.06115596120125261 -0.001306779132460698 0.0034912532929545327
0.06490748295918645 -0.002950677436922315 0.0004178227014588372
0.0665530392924884 -0.010703486727941346 -0.019141355206567137
0.1355242047183243 0.03718432173451354 0.03541374478237828
0.11889060390702944 0.015802420780707843 0.02333490750283729
0.11249020563288664 0.007896257419511778 0.01519913115239119
0.11055093743034314 0.004171092000411116 0.011540982566487383
0.11089777107989501 0.0023330543381760165 0.009581363975934565
0.11241046544465973 0.0012091674863634939 0.008600734856115542
0.11461383735168651 0.00014280459993975156 0.008086249734652067
0.11739693182738493 -0.0014979756795372085 0.007556153830191241
0.12089260158500091 -0.004405641750872404 0.006018173216761714
0.1244518048736778 -0.010568605595086404 -0.001108056223570629
0.12204006866653797 -0.029841291879537206 -0.019062826353221
0.20178636313864634 0.059683512378125365 0.03449445217119033
0.18223178915868893 0.027950942957094216 0.025354432079140066
0.17443181297696012 0.013618665912228769 0.018203468268984113
0.1726792234223467 0.00706692563996367 0.014236355235269043
0.17381666126823594 0.0037262998760218104 0.01233964430248457
0.1763964041148816 0.0016176603847014644 0.011460336816746153
0.1797252015234 -0.0003961470744784209 0.011003830721470473
0.18337548373528945 -0.0033672025351290207 0.01030229553178316
0.18694312414316003 -0.008637560593454918 0.007947420719625507
0.18848314695752194 -0.02031598249015247 0.002414164268955627
0.1807036720292931 -0.049421209430982535 -0.009891611807349111
0.2706327922698009 0.07210165055930544 0.02717642753203033
0.2507995158627403 0.03487553064080328 0.02206042958892883
0.24344679535340485 0.0167943252315376 0.017655186831625605
0.24274834904658737 0.00838998773409678 0.015006173846070727
0.2449799501207254 0.004000294022391259 0.013730005461929234
0.24852821230482294 0.0011405420279100682 0.013194723980436071
0.25254538064223975 -0.001648028948095026 0.012934581128785178
0.2563426733727271 -0.0057364243428219865 0.01241587223226072
0.258903647010933 -0.013202163455601629 0.011091223496728872
0.25709289737588925 -0.029389662871909368 0.008681923989671181
0.2438156578492933 -0.0651159592816686 0.002941843167581314
0.33970502609831305 0.07337595854354649 0.015694554229079418
0.32203565731324185 0.034971328309233725 0.015671849088581963
0.3168528012598607 0.016434386303703766 0.014685953096764296
0.3177358486433182 0.007753523559828312 0.014081982295286687
0.32094248571829753 0.0031088153307035475 0.013800470330529033
0.32499999999999674 5.0002270744275254e-17 0.013706457918600375
0.32905751428169594 -0.0031088153307034442 0.013800470330528992
0.3322641513566754 -0.007753523559828029 0.014081982295286715
0.33314719874013304 -0.01643438630370356 0.014685953096764244
0.32796434268675195 -0.03497132830923369 0.015671849088581914
0.3102949739016807 -0.07337595854354671 0.015694554229079172
0.4061843421507006 0.06511595928166865 0.0029418431675816187
0.39290710262410455 0.029389662871909666 0.00868192398967137
0.3910963529890607 0.013202163455601884 0.011091223496728971
0.3936573266272666 0.005736424342822307 0.01241587223226084
0.3974546193577538 0.0016480289480950753 0.0129345811287853
0.4014717876951706 -0.0011405420279100398 0.013194723980436186
0.4050200498792683 -0.0040002940223911355 0.013730005461929427
0.40725165095340654 -0.008389987734096568 0.015006173846070888
0.406553204646589 -0.016794325231537476 0.01765518683162577
0.39920048413725356 -0.034875530640803315 0.022060429588928947
0.37936720773019283 -0.0721016505593058 0.02717642753203035
0.4692963279707017 0.04942120943098254 -0.00989161180734906
0.4615168530424728 0.020315982490152696 0.002414164268955843
0.46305687585683464 0.008637560593455098 0.007947420719625743
0.4666245162647053 0.0033672025351292796 0.01030229553178337
0.47027479847659465 0.00039614707447842426 0.011003830721470726
0.473603595885113 -0.0016176603847014807 0.01146033681674633
0.4761833387317589 -0.0037262998760217198 0.012339644302484758
0.47732077657764826 -0.007066925639963535 0.014236355235269222
0.47556818702303494 -0.013618665912228744 0.01820346826898438
0.467768210841306 -0.027950942957094452 0.025354432079140447
0.4482136368613483 -0.05968351237812597 0.034494452171190924
0.5279599313334578 0.02984129187953717 -0.01906282635322121
0.5255481951263178 0.010568605595086536 -0.0011080562235705406
0.5291073984149947 0.004405641750872524 0.006018173216761981
0.5326030681726108 0.0014979756795373894 0.007556153830191528
0.5353861626483092 -0.0001428045999397719 0.008086249734652343
0.5375895345553361 -0.0012091674863634989 0.008600734856115724
0.539102228920101 -0.002333054338176019 0.009581363975934794
0.539449062569653 -0.004171092000411035 0.011540982566487586
0.5375097943671094 -0.007896257419511778 0.015199131152391498
0.5311093960929665 -0.01580242078070805 0.0233349075028379
0.5144757952816714 -0.037184321734513984 0.035413744782379325
0.5834469607075083 0.010703486727941214 -0.01914135520656769
0.5850925170408101 0.0029506774369224263 0.00041782270145898854
0.5888440387987441 0.0013067791324607456 0.0034912532929547856
0.5913334864610724 0.0003485151851156371 0.004047488374986449
0.5929544237065146 -0.00013375093299931298 0.0043215386777808295
0.5941074959401916 -0.0004323682830647102 0.004741167441785554
0.5948834046182125 -0.0007453767540007213 0.005506100331590263
0.5950559275940338 -0.0012501101638203302 0.006902948324754629
0.593912651364631 -0.002407741251607871 0.009394676972819826
0.5906617653711226 -0.004325228834313145 0.013690345714233134
0.5804998374333572 -0.012303525927533063 0.02627887781176497
0.65 0.0 0.0
0.65 0.0 0.0
0.65 0.0 0.0
0.65 0.0 0.0
0.65 0.0 0.0
0.65 0.0 0.0
0.65 0.0 0.0
0.65 0.0 0.0
0.65 0.0 0.0
0.65 0.0 0.0
0.65 0.0 0.0
0.0 0.0 0.0
0.0 0.0 0.0
0.0 0.0 0.0
0.0 0.0 0.0
0.0 0.0 0.0
0.0 0.0 0.0
0.0 0.0 0.0
0.0 0.0 0.0
0.0 0.0 0.0
0.0 0.0 0.0
0.0 0.0 0.0
0.07294046495565962 0.012088962925303174 0.0157301495102077
0.061766408158768556 0.004043454184219655 0.00884921113376071
0.058555705394019324 0.0023639348867795233 0.006298345599068469
0.057354418536172416 0.0012149385292530596 0.0046150634767802255
0.057392452216989624 0.0006884998645235249 0.00361133460358733
0.058049068367456935 0.00035124682459796645 0.003088880854067942
0.059166551170127285 2.3012418591717423e-05 0.0028317225112150708
0.060871960487786515 -0.0004780458809674398 0.002669508555957013
0.06354428145523448 -0.0014788130041063852 0.002235489534980978