# vtk DataFile Version 3.0
Some data
ASCII
DATASET UNSTRUCTURED_GRID
POINTS 1331 float
0.0 0.0 0.0
0.1 0.0 0.0
0.2 0.0 0.0
0.30000000000000004 0.0 0.0
0.4 0.0 0.0
0.5 0.0 0.0
0.6000000000000001 0.0 0.0
0.7000000000000001 0.0 0.0
0.8 0.0 0.0
0.9 0.0 0.0
1.0 0.0 0.0
0.0 0.1 0.0
0.1 0.1 0.0
0.2 0.1 0.0
0.30000000000000004 0.1 0.0
0.4 0.1 0.0
0.5 0.1 0.0
0.6000000000000001 0.1 0.0
0.7000000000000001 0.1 0.0
0.8 0.1 0.0
0.9 0.1 0.0
1.0 0.1 0.0
0.0 0.2 0.0
0.1 0.2 0.0
0.2 0.2 0.0
0.30000000000000004 0.2 0.0
0.4 0.2 0.0
0.5 0.2 0.0
0.6000000000000001 0.2 0.0
0.7000000000000001 0.2 0.0
0.8 0.2 0.0
0.9 0.2 0.0
1.0 0.2 0.0
0.0 0.30000000000000004 0.0
0.1 0.30000000000000004 0.0
0.2 0.30000000000000004 0.0
0.30000000000000004 0.30000000000000004 0.0
0.4 0.30000000000000004 0.0
0.5 0.30000000000000004 0.0
0.6000000000000001 0.30000000000000004 0.0
0.7000000000000001 0.30000000000000004 0.0
0.8 0.30000000000000004 0.0
0.9 0.30000000000000004 0.0
1.0 0.30000000000000004 0.0
0.0 0.4 0.0
0.1 0.4 0.0
0.2 0.4 0.0
0.30000000000000004 0.4 0.0
0.4 0.4 0.0
0.5 0.4 0.0
0.6000000000000001 0.4 0.0
0.7000000000000001 0.4 0.0
0.8 0.4 0.0
0.9 0.4 0.0
1.0 0.4 0.0
0.0 0.5 0.0
0.1 0.5 0.0
0.2 0.5 0.0
0.30000000000000004 0.5 0.0
0.4 0.5 0.0
0.5 0.5 0.0
0.6000000000000001 0.5 0.0
0.7000000000000001 0.5 0.0
0.8 0.5 0.0
0.9 0.5 0.0
1.0 0.5 0.0
0.0 0.6000000000000001 0.0
0.1 0.6000000000000001 0.0
0.2 0.6000000000000001 0.0
0.30000000000000004 0.6000000000000001 0.0
0.4 0.6000000000000001 0.0
0.5 0.6000000000000001 0.0
0.6000000000000001 0.6000000000000001 0.0
0.7000000000000001 0.6000000000000001 0.0
0.8 0.6000000000000001 0.0
0.9 0.6000000000000001 0.0
1.0 0.6000000000000001 0.0
0.0 0.7000000000000001 0.0
0.1 0.7000000000000001 0.0
0.2 0.7000000000000001 0.0
0.30000000000000004 0.7000000000000001 0.0
0.4 0.7000000000000001 0.0
0.5 0.7000000000000001 0.0
0.6000000000000001 0.7000000000000001 0.0
0.7000000000000001 0.7000000000000001 0.0
0.8 0.7000000000000001 0.0
0.9 0.7000000000000001 0.0
1.0 0.7000000000000001 0.0
0.0 0.8 0.0
0.1 0.8 0.0
0.2 0.8 0.0
0.30000000000000004 0.8 0.0
0.4 0.8 0.0
0.5 0.8 0.0
0.6000000000000001 0.8 0.0
0.7000000000000001 0.8 0.0
0.8 0.8 0.0
0.9 0.8 0.0
1.0 0.8 0.0
0.0 0.9 0.0
0.1 0.9 0.0
0.2 0.9 0.0
0.30000000000000004 0.9 0.0
0.4 0.9 0.0
0.5 0.9 0.0
0.6000000000000001 0.9 0.0
0.7000000000000001 0.9 0.0
0.8 0.9 0.0
0.9 0.9 0.0
1.0 0.9 0.0
0.0 1.0 0.0
0.1 1.0 0.0
0.2 1.0 0.0
0.30000000000000004 1.0 0.0
0.4 1.0 0.0
0.5 1.0 0.0
0.6000000000000001 1.0 0.0
0.7000000000000001 1.0 0.0
0.8 1.0 0.0
0.9 1.0 0.0
1.0 1.0 0.0
0.0 0.0 0.1
0.1 0.0 0.1
0.2 0.0 0.1
0.30000000000000004 0.0 0.1
0.4 0.0 0.1
0.5 0.0 0.1
0.6000000000000001 0.0 0.1
0.7000000000000001 0.0 0.1
0.8 0.0 0.1
0.9 0.0 0.1
1.0 0.0 0.1
0.0 0.1 0.1
0.1 0.1 0.1
0.2 0.1 0.1
0.30000000000000004 0.1 0.1
0.4 0.1 0.1
0.5 0.1 0.1
0.6000000000000001 0.1 0.1
0.7000000000000001 0.1 0.1
0.8 0.1 0.1
0.9 0.1 0.1
1.0 0.1 0.1
0.0 0.2 0.1
0.1 0.2 0.1
0.2 0.2 0.1
0.30000000000000004 0.2 0.1
0.4 0.2 0.1
0.5 0.2 0.1
0.6000000000000001 0.2 0.1
0.7000000000000001 0.2 0.1
0.8 0.2 0.1
0.9 0.2 0.1
1.0 0.2 0.1
0.0 0.30000000000000004 0.1
0.1 0.30000000000000004 0.1
0.2 0.30000000000000004 0.1
0.30000000000000004 0.30000000000000004 0.1
0.4 0.30000000000000004 0.1
0.5 0.30000000000000004 0.1
0.6000000000000001 0.30000000000000004 0.1
0.7000000000000001 0.30000000000000004 0.1
0.8 0.30000000000000004 0.1
0.9 0.30000000000000004 0.1
1.0 0.30000000000000004 0.1
0.0 0.4 0.1
0.1 0.4 0.1
0.2 0.4 0.1
0.30000000000000004 0.4 0.1
0.4 0.4 0.1
0.5 0.4 0.1
0.6000000000000001 0.4 0.1
0.7000000000000001 0.4 0.1
0.8 0.4 0.1
0.9 0.4 0.1
1.0 0.4 0.1
0.0 0.5 0.1
0.1 0.5 0.1
0.2 0.5 0.1
0.30000000000000004 0.5 0.1
0.4 0.5 0.1
0.5 0.5 0.1
0.6000000000000001 0.5 0.1
0.7000000000000001 0.5 0.1
0.8 0.5 0.1
0.9 0.5 0.1
1.0 0.5 0.1
0.0 0.6000000000000001 0.1
0.1 0.6000000000000001 0.1
0.2 0.6000000000000001 0.1
0.30000000000000004 0.6000000000000001 0.1
0.4 0.6000000000000001 0.1
0.5 0.6000000000000001 0.1
0.6000000000000001 0.6000000000000001 0.1
0.7000000000000001 0.6000000000000001 0.1
0.8 0.6000000000000001 0.1
0.9 0.6000000000000001 0.1
1.0 0.6000000000000001 0.1
0.0 0.7000000000000001 0.1
0.1 0.7000000000000001 0.1
0.2 0.7000000000000001 0.1
0.30000000000000004 0.7000000000000001 0.1
0.4 0.7000000000000001 0.1
0.5 0.7000000000000001 0.1
0.6000000000000001 0.7000000000000001 0.1
0.7000000000000001 0.7000000000000001 0.1
0.8 0.7000000000000001 0.1
0.9 0.7000000000000001 0.1
1.0 0.7000000000000001 0.1
0.0 0.8 0.1
0.1 0.8 0.1
0.2 0.8 0.1
0.30000000000000004 0.8 0.1
0.4 0.8 0.1
0.5 0.8 0.1
0.6000000000000001 0.8 0.1
0.7000000000000001 0.8 0.1
0.8 0.8 0.1
0.9 0.8 0.1
1.0 0.8 0.1
0.0 0.9 0.1
0.1 0.9 0.1
0.2 0.9 0.1
0.30000000000000004 0.9 0.1
0.4 0.9 0.1
0.5 0.9 0.1
0.6000000000000001 0.9 0.1
0.7000000000000001 0.9 0.1
0.8 0.9 0.1
0.9 0.9 0.1
1.0 0.9 0.1
0.0 1.0 0.1
0.1 1.0 0.1
0.2 1.0 0.1
0.30000000000000004 1.0 0.1
0.4 1.0 0.1
0.5 1.0 0.1
0.6000000000000001 1.0 0.1
0.7000000000000001 1.0 0.1
0.8 1.0 0.1
0.9 1.0 0.1
1.0 1.0 0.1
0.0 0.0 0.2
0.1 0.0 0.2
0.2 0.0 0.2
0.30000000000000004 0.0 0.2
0.4 0.0 0.2
0.5 0.0 0.2
0.6000000000000001 0.0 0.2
0.7000000000000001 0.0 0.2
0.8 0.0 0.2
0.9 0.0 0.2
1.0 0.0 0.2
0.0 0.1 0.2
0.1 0.1 0.2
0.2 0.1 0.2
0.30000000000000004 0.1 0.2
0.4 0.1 0.2
0.5 0.1 0.2
0.6000000000000001 0.1 0.2
0.7000000000000001 0.1 0.2
0.8 0.1 0.2
0.9 0.1 0.2
1.0 0.1 0.2
0.0 0.2 0.2
0.1 0.2 0.2
0.2 0.2 0.2
0.30000000000000004 0.2 0.2
0.4 0.2 0.2
0.5 0.2 0.2
0.6000000000000001 0.2 0.2
0.7000000000000001 0.2 0.2
0.8 0.2 0.2
0.9 0.2 0.2
1.0 0.2 0.2
0.0 0.30000000000000004 0.2
0.1 0.30000000000000004 0.2
0.2 0.30000000000000004 0.2
0.30000000000000004 0.30000000000000004 0.2
0.4 0.30000000000000004 0.2
0.5 0.30000000000000004 0.2
0.6000000000000001 0.30000000000000004 0.2
0.7000000000000001 0.30000000000000004 0.2
0.8 0.30000000000000004 0.2
0.9 0.30000000000000004 0.2
1.0 0.30000000000000004 0.2
0.0 0.4 0.2
0.1 0.4 0.2
0.2 0.4 0.2
0.30000000000000004 0.4 0.2
0.4 0.4 0.2
0.5 0.4 0.2
0.6000000000000001 0.4 0.2
0.7000000000000001 0.4 0.2
0.8 0.4 0.2
0.9 0.4 0.2
1.0 0.4 0.2
0.0 0.5 0.2
0.1 0.5 0.2
0.2 0.5 0.2
0.30000000000000004 0.5 0.2
0.4 0.5 0.2
0.5 0.5 0.2
0.6000000000000001 0.5 0.2
0.7000000000000001 0.5 0.2
0.8 0.5 0.2
0.9 0.5 0.2
1.0 0.5 0.2
0.0 0.6000000000000001 0.2
0.1 0.6000000000000001 0.2
0.2 0.6000000000000001 0.2
0.30000000000000004 0.6000000000000001 0.2
0.4 0.6000000000000001 0.2
0.5 0.6000000000000001 0.2
0.6000000000000001 0.6000000000000001 0.2
0.7000000000000001 0.6000000000000001 0.2
0.8 0.6000000000000001 0.2
0.9 0.6000000000000001 0.2
1.0 0.6000000000000001 0.2
0.0 0.7000000000000001 0.2
0.1 0.7000000000000001 0.2
0.2 0.7000000000000001 0.2
0.30000000000000004 0.7000000000000001 0.2
0.4 0.7000000000000001 0.2
0.5 0.7000000000000001 0.2
0.6000000000000001 0.7000000000000001 0.2
0.7000000000000001 0.7000000000000001 0.2
0.8 0.7000000000000001 0.2
0.9 0.7000000000000001 0.2
1.0 0.7000000000000001 0.2
0.0 0.8 0.2
0.1 0.8 0.2
0.2 0.8 0.2
0.30000000000000004 0.8 0.2
0.4 0.8 0.2
0.5 0.8 0.2
0.6000000000000001 0.8 0.2
0.7000000000000001 0.8 0.2
0.8 0.8 0.2
0.9 0.8 0.2
1.0 0.8 0.2
0.0 0.9 0.2
0.1 0.9 0.2
0.2 0.9 0.2
0.30000000000000004 0.9 0.2
0.4 0.9 0.2
0.5 0.9 0.2
0.6000000000000001 0.9 0.2
0.7000000000000001 0.9 0.2
0.8 0.9 0.2
0.9 0.9 0.2
1.0 0.9 0.2
0.0 1.0 0.2
0.1 1.0 0.2
0.2 1.0 0.2
0.30000000000000004 1.0 0.2
0.4 1.0 0.2
0.5 1.0 0.2
0.6000000000000001 1.0 0.2
0.7000000000000001 1.0 0.2
0.8 1.0 0.2
0.9 1.0 0.2
1.0 1.0 0.2
0.0 0.0 0.30000000000000004
0.1 0.0 0.30000000000000004
0.2 0.0 0.30000000000000004
0.30000000000000004 0.0 0.30000000000000004
0.4 0.0 0.30000000000000004
0.5 0.0 0.30000000000000004
0.6000000000000001 0.0 0.30000000000000004
0.7000000000000001 0.0 0.30000000000000004
0.8 0.0 0.30000000000000004
0.9 0.0 0.30000000000000004
1.0 0.0 0.30000000000000004
0.0 0.1 0.30000000000000004
0.1 0.1 0.30000000000000004
0.2 0.1 0.30000000000000004
0.30000000000000004 0.1 0.30000000000000004
0.4 0.1 0.30000000000000004
0.5 0.1 0.30000000000000004
0.6000000000000001 0.1 0.30000000000000004
0.7000000000000001 0.1 0.30000000000000004
0.8 0.1 0.30000000000000004
0.9 0.1 0.30000000000000004
1.0 0.1 0.30000000000000004
0.0 0.2 0.30000000000000004
0.1 0.2 0.30000000000000004
0.2 0.2 0.30000000000000004
0.30000000000000004 0.2 0.30000000000000004
0.4 0.2 0.30000000000000004
0.5 0.2 0.30000000000000004
0.6000000000000001 0.2 0.30000000000000004
0.7000000000000001 0.2 0.30000000000000004
0.8 0.2 0.30000000000000004
0.9 0.2 0.30000000000000004
1.0 0.2 0.30000000000000004
0.0 0.30000000000000004 0.30000000000000004
0.1 0.30000000000000004 0.30000000000000004
0.2 0.30000000000000004 0.30000000000000004
0.30000000000000004 0.30000000000000004 0.30000000000000004
0.4 0.30000000000000004 0.30000000000000004
0.5 0.30000000000000004 0.30000000000000004
0.6000000000000001 0.30000000000000004 0.30000000000000004
0.7000000000000001 0.30000000000000004 0.30000000000000004
0.8 0.30000000000000004 0.30000000000000004
0.9 0.30000000000000004 0.30000000000000004
1.0 0.30000000000000004 0.30000000000000004
0.0 0.4 0.30000000000000004
0.1 0.4 0.30000000000000004
0.2 0.4 0.30000000000000004
0.30000000000000004 0.4 0.30000000000000004
0.4 0.4 0.30000000000000004
0.5 0.4 0.30000000000000004
0.6000000000000001 0.4 0.30000000000000004
0.7000000000000001 0.4 0.30000000000000004
0.8 0.4 0.30000000000000004
0.9 0.4 0.30000000000000004
1.0 0.4 0.30000000000000004
0.0 0.5 0.30000000000000004
0.1 0.5 0.30000000000000004
0.2 0.5 0.30000000000000004
0.30000000000000004 0.5 0.30000000000000004
0.4 0.5 0.30000000000000004
0.5 0.5 0.30000000000000004
0.6000000000000001 0.5 0.30000000000000004
0.7000000000000001 0.5 0.30000000000000004
0.8 0.5 0.30000000000000004
0.9 0.5 0.30000000000000004
1.0 0.5 0.30000000000000004
0.0 0.6000000000000001 0.30000000000000004
0.1 0.6000000000000001 0.30000000000000004
0.2 0.6000000000000001 0.30000000000000004
0.30000000000000004 0.6000000000000001 0.30000000000000004
[...]
POINT_DATA 1331
VECTORS Disp float
0.0 0.0 0.0
0.0 0.0 0.0
0.0 0.0 0.0
0.0 0.0 0.0
0.0 0.0 0.0
0.0 0.0 0.0
0.0 0.0 0.0
0.0 0.0 0.0
0.0 0.0 0.0
0.0 0.0 0.0
0.0 0.0 0.0
0.014055994415284667 0.008831092197486155 0.017598652431248828
0.00949986964498561 0.003998336960871079 0.009095980725337165
0.008208465413965301 0.001896396514736452 0.005653504033594709
0.008495929035260311 0.0009451520833329979 0.003554652614718147
0.009043928925080234 0.0005574124551130538 0.0021796355180419835
0.009414492765354046 0.00036675541344215727 0.0010749667245242606
0.00947764182799173 0.0002508680515362272 7.999184554037222e-05
0.009181031126579158 0.0001208814297587222 -0.0009235902482969637
0.008638226131231774 -0.00015568432773949712 -0.0019627177096728276
0.008617829827162275 -0.0012156101328283818 -0.004358329626246453
0.010566854374510937 -0.007592110173157238 -0.014460040444166756
0.029275736937549895 0.021467837585704627 0.021434747808933185
0.025121503893421476 0.009855056688752882 0.013040275080991263
0.023791928899945296 0.004144275723224489 0.007646637991230185
0.024087738904176988 0.0018728618419593202 0.004895948308014609
0.024726168826420952 0.0009871582734105617 0.0029367312187485064
0.02521112642741625 0.0005736734799556909 0.0014033513918458404
0.02541399181929427 0.0002883156141374739 4.9452054695128974e-05
0.025352125850406255 -0.00013334009959350225 -0.0012937672010368854
0.02524900294009294 -0.0010896369250195334 -0.0028894174535017037
0.025491349171002892 -0.004377825236847486 -0.0062112210824893785
0.025643677535191235 -0.017553231069603003 -0.014231605968295596
0.05049338733536411 0.029680672650577805 0.01863344874055719
0.04684474549649377 0.013419951916552668 0.011944825340884842
0.045711321548047495 0.005453234929467936 0.0076382391377693305
0.045943900027947654 0.002352854058655928 0.004945758622351868
0.04653476989513399 0.0010956653666342132 0.0030459150375664705
0.04710318288538696 0.0005027430004454886 0.0016227899778473336
0.0475088881682078 1.7766558073066823e-05 0.00043280148212231594
0.047795142620258885 -0.0008152865994910792 -0.0006982885248071749
0.04811366705628024 -0.0027642517062467205 -0.0022283213615469154
0.04860087101854193 -0.007832266063197422 -0.00419545603277992
0.04750664628318816 -0.025413447447751366 -0.008907348852262319
0.07564978978152548 0.033422995202362665 0.012157140073313852
0.07232267993965463 0.014372943285254115 0.00811899044560502
0.07156274585885744 0.0058855414974182145 0.005729036832545528
0.07172753609934324 0.0024470821346244593 0.003858476554588398
0.07218801479903188 0.0009878422878564982 0.002546612556616701
0.07270953886774396 0.0002672634102560625 0.0016630510267565254
0.07317007030717536 -0.0003983314190951781 0.0010377328535436127
0.07355683447692805 -0.0016209482984734943 0.0005401457631123599
0.0738689986034986 -0.004450651050958423 -4.7735376378272546e-05
0.07412664747323516 -0.010999012316098214 -0.0006867381119659698
0.07212822855753497 -0.030770354101019935 -0.0022973905281717735
0.10243504360223706 0.03344589403375242 0.004369952020862458
0.09960523350238207 0.013306100667369385 0.003348407642598949
0.09926676848901309 0.005533827684074129 0.0027199278206307843
0.09934532675585252 0.002198039455280702 0.002057748055499212
0.0996297946275439 0.0007529022213723004 0.0016631299602097483
0.09999999999999977 -4.706300998584354e-18 0.001535056893972107
0.10037020537245574 -0.0007529022213722827 0.0016631299602098254
0.1006546732441472 -0.0021980394552807174 0.0020577480554992995
0.10073323151098663 -0.005533827684074101 0.0027199278206308493
0.10039476649761764 -0.013306100667369378 0.003348407642599017
0.09756495639776268 -0.03344589403375242 0.004369952020862548
0.1278717714424649 0.030770354101019946 -0.002297390528171901
0.12587335252676468 0.01099901231609821 -0.0006867381119660441
0.1261310013965012 0.0044506510509584665 -4.773537637840135e-05
0.12644316552307172 0.0016209482984735203 0.0005401457631122786
0.12682992969282444 0.0003983314190952016 0.0010377328535435579
0.12729046113225578 -0.0002672634102560531 0.0016630510267564985
0.12781198520096781 -0.0009878422878565165 0.0025466125566167078
0.12827246390065639 -0.002447082134624473 0.0038584765545884693
0.12843725414114224 -0.005885541497418167 0.005729036832545614
0.12767732006034502 -0.01437294328525409 0.008118990445605098
0.12435021021847421 -0.03342299520236268 0.012157140073313935
0.15249335371681175 0.025413447447751394 -0.008907348852262381
0.15139912898145796 0.007832266063197426 -0.004195456032779976
0.15188633294371962 0.0027642517062467474 -0.0022283213615470073
0.15220485737974096 0.0008152865994911255 -0.0006982885248073033
0.15249111183179198 -1.7766558073037983e-05 0.00043280148212222855
0.15289681711461278 -0.0005027430004454608 0.0016227899778473512
0.15346523010486576 -0.001095665366634224 0.0030459150375665356
0.15405609997205216 -0.0023528540586559184 0.004945758622351925
0.15428867845195232 -0.005453234929467898 0.0076382391377694285
0.15315525450350603 -0.013419951916552608 0.011944825340884941
0.14950661266463558 -0.02968067265057784 0.018633448740557234
0.17435632246480848 0.01755323106960308 -0.014231605968295624
0.17450865082899691 0.004377825236847501 -0.006211221082489432
0.17475099705990688 0.0010896369250195618 -0.0028894174535017466
0.17464787414959354 0.0001333400995935545 -0.0012937672010369227
0.17458600818070558 -0.00028831561413746027 4.945205469513911e-05
0.17478887357258366 -0.0005736734799556834 0.0014033513918458595
0.17527383117357898 -0.0009871582734105706 0.0029367312187485693
0.17591226109582292 -0.0018728618419593022 0.004895948308014646
0.1762080711000546 -0.004144275723224464 0.00764663799123024
0.17487849610657846 -0.00985505668875284 0.013040275080991315
0.17072426306245003 -0.021467837585704686 0.021434747808933265
0.18943314562548888 0.007592110173157276 -0.014460040444166815
0.19138217017283754 0.0012156101328283726 -0.004358329626246492
0.19136177386876804 0.00015568432773952585 -0.001962717709672847
0.19081896887342067 -0.00012088142975871678 -0.0009235902482969897
0.19052235817200813 -0.0002508680515362472 7.999184554034964e-05
0.19058550723464585 -0.00036675541344216827 0.0010749667245242723
0.19095607107491963 -0.0005574124551130482 0.0021796355180420074
0.1915040709647396 -0.0009451520833329877 0.0035546526147181585
0.1917915345860346 -0.00189639651473643 0.005653504033594766
0.19050013035501434 -0.0039983369608710415 0.00909598072533724
0.1859440055847153 -0.008831092197486182 0.017598652431249043
0.2 0.0 0.0
0.2 0.0 0.0
0.2 0.0 0.0
0.2 0.0 0.0
0.2 0.0 0.0
0.2 0.0 0.0
0.2 0.0 0.0
0.2 0.0 0.0
0.2 0.0 0.0
0.2 0.0 0.0
0.2 0.0 0.0
0.0 0.0 0.0
0.0 0.0 0.0
0.0 0.0 0.0
0.0 0.0 0.0
0.0 0.0 0.0
0.0 0.0 0.0
0.0 0.0 0.0
0.0 0.0 0.0
0.0 0.0 0.0
0.0 0.0 0.0
0.0 0.0 0.0
0.01765292840065302 0.007475755523324733 0.010700466064978709
0.01263786507328507 0.002653476149297629 0.006117894458621867
0.010660164661090389 0.0012134013585421795 0.003703664656871142
0.010195188093329362 0.00046718550751580234 0.002242490633084117
0.010289451952958533 0.00022665354024395358 0.0013259956406205843
0.010433869886474819 0.0001272086636935882 0.0006175157651539009
0.010484908184416573 5.994315926475295e-05 3.735648889117884e-07
0.010455956242723611 -2.1130047715471747e-05 -0.0005988458986823936
0.01059502421784922 -0.0002918718357055733 -0.0013571188098704602
0.011768952943183614 -0.0012740749680757067 -0.0033660738777065912
0.01553449327157963 -0.007833012635337967 -0.008318589252413067
0.03547106439079912 0.020212809494390357 0.014491178159863564
0.02949451401749926 0.00895672033465572 0.009543613430433567
0.026666156195900882 0.003699899592074206 0.005729787099249737
0.025979129883582072 0.0015109901800873379 0.003582983082529526
0.026053795648330356 0.0006935463251444514 0.002120398294974001
0.026266998575127053 0.00031141087795572237 0.0010102421331033551
0.026442519923010444 8.629414444247843e-07 6.494372991478636e-05
0.026661036304107738 -0.0004874211334102261 -0.0008862952841340412
0.027307415789242936 -0.001597926574676428 -0.002081120573558048
0.029080780855084618 -0.005590062402807222 -0.004890268567393548
0.03171441864018201 -0.019200636817365335 -0.009431352410478626
0.05611204618979719 0.03033064508970862 0.013245460566514024
0.05088943845319291 0.014390321718450151 0.00920129204320282
0.04834352838876083 0.005910378741421661 0.005918858257642342
0.0476807203709146 0.002485303703734489 0.003792369528273229
0.047734053060144305 0.001072922673372511 0.002319360923755607
0.048019178261041816 0.0003305977720674424 0.0012338764948642948
0.0483652433281086 -0.0003423230603408372 0.00035250096689611705
0.04884045064887343 -0.0014487073910602953 -0.0005127841058490915
0.04970016186686415 -0.0038234326582945195 -0.0016491099568734448
0.05090349636365487 -0.010450360501037778 -0.0034867969910385844
0.05123776641307976 -0.02839749384397785 -0.006378711287602314
0.07917982145809963 0.03576942162097728 0.00879030306802987
0.07516181739917667 0.016908555833210853 0.006399876260570148
0.07339508290169719 0.007110499719213014 0.004436790052826378
0.07292889020860804 0.0030832443683802353 0.0030223118683242317
0.07297466139359204 0.0012351590653542459 0.0019925681155764656
0.07325018536606495 0.0001910748937085017 0.0013053284663684889
0.07359827363265914 -0.0008130523589129089 0.000829379166109352
0.07400402817664316 -0.0024967856064453797 0.0004385439287827157
0.07450768590466268 -0.005944365050310762 -2.6397716486106662e-05
0.07476960560622618 -0.014273668747000107 -0.0006323097493135777
0.07324621396153466 -0.03418802273683407 -0.0017933806397371279
0.10352990928547615 0.03669270823984578 0.003033050834420317
0.10070953199744402 0.01656460655016145 0.0026430182564068623
0.09986401400829659 0.007116001249815656 0.002131632332913832
0.09971566683671887 0.0031093215167116253 0.001681616713792846
0.09980377029960229 0.0011493762187334278 0.0013676831347640816
0.09999999999999978 -2.4395300021891838e-18 0.0012651375532114905
0.1001962297003973 -0.0011493762187334263 0.0013676831347641243
0.1002843331632807 -0.0031093215167116136 0.0016816167137929322
0.10013598599170298 -0.0071160012498156355 0.002131632332913899
0.09929046800255557 -0.016564606550161447 0.0026430182564069183
0.0964700907145235 -0.036692708239845766 0.0030330508344204032
0.12675378603846515 0.034188022736834085 -0.001793380639737218
0.1252303943937736 0.014273668747000107 -0.0006323097493136677
0.12549231409533704 0.005944365050310763 -2.6397716486213402e-05
0.12599597182335656 0.002496785606445405 0.00043854392878261853
0.12640172636734057 0.0008130523589129473 0.0008293791661093023
0.1267498146339347 -0.00019107489370847404 0.0013053284663684796
0.12702533860640758 -0.0012351590653542533 0.0019925681155765203
0.12707110979139158 -0.0030832443683802098 0.0030223118683243106
0.12660491709830246 -0.007110499719212989 0.004436790052826454
0.12483818260082294 -0.01690855583321083 0.006399876260570205
0.12082017854189998 -0.03576942162097729 0.008790303068029944
0.1487622335869201 0.028397493843977845 -0.0063787112876024015
0.14909650363634497 0.0104503605010378 -0.003486796991038645
0.15029983813313563 0.0038234326582945338 -0.0016491099568735072
0.15115954935112635 0.0014487073910603404 -0.0005127841058491706
0.15163475667189108 0.0003423230603408503 0.0003525009668960589
0.1519808217389579 -0.00033059777206741273 0.0012338764948643063
0.15226594693985543 -0.001072922673372509 0.0023193609237556387
0.15231927962908515 -0.0024853037037344504 0.0037923695282732757
0.1516564716112389 -0.00591037874142159 0.005918858257642418
0.14911056154680682 -0.014390321718450137 0.0092012920432029
0.14388795381020258 -0.03033064508970871 0.013245460566514095
0.1682855813598178 0.01920063681736535 -0.009431352410478678
0.17091921914491523 0.005590062402807243 -0.004890268567393593
0.1726925842107569 0.0015979265746764552 -0.0020811205735580935
0.1733389636958921 0.000487421133410252 -0.0008862952841340701
0.1735574800769894 -8.629414444464548e-07 6.494372991478099e-05
0.17373300142487283 -0.00031141087795570686 0.0010102421331033735
0.17394620435166952 -0.0006935463251444497 0.002120398294974029
0.1740208701164179 -0.0015109901800872895 0.0035829830825295805
0.1733338438040991 -0.003699899592074136 0.005729787099249777
0.17050548598250068 -0.008956720334655695 0.009543613430433626
0.16452893560920076 -0.02021280949439047 0.01449117815986364
0.18446550672842016 0.007833012635337963 -0.008318589252413083
0.18823104705681618 0.0012740749680757253 -0.0033660738777066402
0.1894049757821506 0.0002918718357055812 -0.0013571188098704956
0.18954404375727626 2.113004771549228e-05 -0.0005988458986824146
0.1895150918155833 -5.994315926477487e-05 3.7356488889750405e-07
0.189566130113525 -0.0001272086636935958 0.0006175157651538901
0.1897105480470413 -0.0002266535402439539 0.001325995640620596
0.18980481190667045 -0.0004671855075157971 0.002242490633084145
0.18933983533890944 -0.0012134013585421385 0.003703664656871184
0.18736213492671483 -0.002653476149297614 0.00611789445862194
0.18234707159934688 -0.007475755523324799 0.01070046606497882
0.2 0.0 0.0
0.2 0.0 0.0
0.2 0.0 0.0
0.2 0.0 0.0
0.2 0.0 0.0
0.2 0.0 0.0
0.2 0.0 0.0
0.2 0.0 0.0
0.2 0.0 0.0
0.2 0.0 0.0
0.2 0.0 0.0
0.0 0.0 0.0
0.0 0.0 0.0
0.0 0.0 0.0
0.0 0.0 0.0
0.0 0.0 0.0
0.0 0.0 0.0
0.0 0.0 0.0
0.0 0.0 0.0
0.0 0.0 0.0
0.0 0.0 0.0
0.0 0.0 0.0
0.02002529307381632 0.007860148890650082 0.006267189257396751
0.013623014116883238 0.0027436591450046 0.0041016554479855845
0.011375059587439479 0.0012709887071583605 0.0026444712470502546
0.010727135035861698 0.00046112170302285634 0.001586688280394469
0.01069263104357792 0.0001930688654765 0.0009038767427769832
0.010771770527503461 9.381734905401503e-05 0.0004057462437672847
0.010826835033664203 2.416414145233355e-05 -1.2885911314554712e-05
0.010894213026630163 -5.521609990258094e-05 -0.00043159196135611754
0.011188492041679545 -0.0004449258951396386 -0.0011003992630858857
0.012588931471042883 -0.0016247530538421643 -0.002349614586814027
0.01781494294715691 -0.00840062449460997 -0.0045394091766682645
0.03791629307865336 0.020043055650926192 0.009190327580870624
0.031364828212263655 0.008982162727404716 0.00654622618036072
0.028199314551313005 0.0036755064896083984 0.004152758028798174
0.02719240060522867 0.0014197707729727126 0.002559560417472187
0.02701266591320144 0.0005707389971535857 0.001485129544829108
0.027096393447031044 0.0001987333467843339 0.0007010768641681961
0.02728898038874325 -0.00011780779783210932 4.886892677816851e-05
0.027684670109037735 -0.0006145878494342764 -0.0006251124214900957
0.02859555586604669 -0.0019218658397497637 -0.0016012955998607214
0.030613467622671198 -0.006476051768122667 -0.0034715239447756147
0.03402214189965109 -0.01949804649449456 -0.005695688846184154
0.058440935477871964 0.029735356502396615 0.008765492317070802
0.05280379442774001 0.014579186502466658 0.006498906951837052
0.04985228173727885 0.006138320080995137 0.004317683750404924
0.048794976280232834 0.002505469955356341 0.0027473966553536455
0.04858920854664886 0.0010087266946243495 0.0016698612207934563
0.04873102305905821 0.00022104268732022354 0.0008893732484833467
0.049060947775608 -0.0005136283644447337 0.0002653701225395781
0.04964642699634686 -0.0016968924550606788 -0.00036316287517224467
0.050696757827867325 -0.004338527954674435 -0.001216970321547773
0.05203471529020985 -0.011668045455057126 -0.0025375774433810568
0.05311236629255757 -0.02851688737861963 -0.004066876239189333
0.08080365070964689 0.03537792879980182 0.005950732136523366
0.07658300717760401 0.017649967119217055 0.004606649760649962
0.07445317368456887 0.00760896672044085 0.0032405118766368392
0.07369675430922912 0.0032643338522317456 0.0022072573217151678
0.07354093082827301 0.0012710761558371974 0.0014643744481547814
0.07368523889012069 0.00011769052695523506 0.0009646087577445353
0.07397707663716732 -0.0010055733113200336 0.0006238561720839642
0.0743924660696357 -0.0028375635323943656 0.00033356843189537495
0.07493089022465718 -0.006578863988764052 -6.544757274889643e-06
0.07515808008305594 -0.01571373803438076 -0.0004606261929749296
0.07418269032382216 -0.03436191988343815 -0.00107316939102958
0.10392140823422885 0.03670114909408247 0.0020145938185792992
0.10126717648114547 0.01784299402156838 0.0018859819326396408
0.10018924232175974 0.007751033165353735 0.0015774477215492523
0.09991502827683636 0.003421309536045865 0.0012596993912004635
0.09990121991580686 0.0012902444476453273 0.0010412257353302112
0.0999999999999998 -3.734877465161648e-18 0.0009648254154360522
0.10009878008419273 -0.001290244447645315 0.0010412257353302403
0.10008497172316332 -0.003421309536045871 0.0012596993912005322
0.09981075767823995 -0.007751033165353723 0.001577447721549336
0.0987328235188542 -0.017842994021568397 0.0018859819326396997
0.09607859176577084 -0.036701149094082515 0.0020145938185793756
0.12581730967617769 0.03436191988343811 -0.0010731693910296764
0.12484191991694384 0.015713738034380743 -0.0004606261929750036
0.12506910977534252 0.006578863988764069 -6.544757274937999e-06
0.12560753393036395 0.0028375635323943894 0.0003335684318952912
0.12602292336283227 0.0010055733113200768 0.0006238561720839175
0.12631476110987888 -0.0001176905269552214 0.0009646087577445425
0.12645906917172656 -0.0012710761558371822 0.0014643744481548358
0.12630324569077045 -0.0032643338522317473 0.0022072573217152267
0.1255468263154307 -0.007608966720440827 0.00324051187663689
0.12341699282239556 -0.017649967119217028 0.004606649760650018
0.1191963492903527 -0.03537792879980187 0.005950732136523406
0.14688763370744223 0.02851688737861963 -0.0040668762391894014
0.14796528470978992 0.011668045455057122 -0.002537577443381107
0.1493032421721325 0.004338527954674434 -0.001216970321547815
0.15035357300365298 0.0016968924550607098 -0.00036316287517228636
0.15093905222439177 0.0005136283644447955 0.0002653701225395558
0.15126897694094155 -0.00022104268732019543 0.000889373248483332
0.15141079145335093 -0.0010087266946243504 0.0016698612207934728
0.15120502371976696 -0.0025054699553563055 0.002747396655353689
0.15014771826272094 -0.006138320080995075 0.00431768375040499
0.1471962055722597 -0.014579186502466654 0.006498906951837105
0.1415590645221278 -0.02973535650239668 0.008765492317070855
0.1659778581003487 0.0194980464944946 -0.005695688846184193
0.16938653237732854 0.00647605176812267 -0.0034715239447756603
0.17140444413395303 0.0019218658397497253 -0.0016012955998607839
0.172315329890962 0.0006145878494343035 -0.0006251124214901148
0.17271101961125654 0.0001178077978321575 4.8868926778165936e-05
0.1729036065529688 -0.00019873334678431858 0.0007010768641682142
0.17298733408679845 -0.0005707389971535987 0.001485129544829104
0.17280759939477122 -0.0014197707729726762 0.0025595604174722085
0.17180068544868687 -0.0036755064896083355 0.004152758028798225
0.1686351717877362 -0.00898216272740471 0.006546226180360789
0.16208370692134655 -0.02004305565092628 0.009190327580870697
0.18218505705284294 0.008400624494609977 -0.004539409176668272
0.187411068528957 0.0016247530538421704 -0.0023496145868140673
0.1888115079583203 0.00044492589513962257 -0.0011003992630859564
0.18910578697336966 5.521609990256399e-05 -0.0004315919613561346
0.18917316496633566 -2.416414145230994e-05 -1.288591131457893e-05
0.1892282294724964 -9.381734905401527e-05 0.0004057462437672846
0.1893073689564219 -0.00019306886547652044 0.0009038767427770066
0.18927286496413812 -0.0004611217030228282 0.0015866882803945272
0.18862494041256037 -0.0012709887071583306 0.002644471247050333
0.18637698588311663 -0.0027436591450046054 0.004101655447985633
0.17997470692618353 -0.007860148890650155 0.0062671892573967795
0.2 0.0 0.0
0.2 0.0 0.0
0.2 0.0 0.0
0.2 0.0 0.0
0.2 0.0 0.0
0.2 0.0 0.0
0.2 0.0 0.0
0.2 0.0 0.0
0.2 0.0 0.0
0.2 0.0 0.0
0.2 0.0 0.0
0.0 0.0 0.0
0.0 0.0 0.0
0.0 0.0 0.0
0.0 0.0 0.0
0.0 0.0 0.0
0.0 0.0 0.0
0.0 0.0 0.0
0.0 0.0 0.0
0.0 0.0 0.0
0.0 0.0 0.0
0.0 0.0 0.0
0.021090357863621133 0.007893202526978735 0.0034805521639138374