# vtk DataFile Version 3.0
Some data
ASCII
DATASET UNSTRUCTURED_GRID
POINTS 1331 float
0.0 0.0 0.0
0.1 0.0 0.0
0.2 0.0 0.0
0.30000000000000004 0.0 0.0
0.4 0.0 0.0
0.5 0.0 0.0
0.6000000000000001 0.0 0.0
0.7000000000000001 0.0 0.0
0.8 0.0 0.0
0.9 0.0 0.0
1.0 0.0 0.0
0.0 0.1 0.0
0.1 0.1 0.0
0.2 0.1 0.0
0.30000000000000004 0.1 0.0
0.4 0.1 0.0
0.5 0.1 0.0
0.6000000000000001 0.1 0.0
0.7000000000000001 0.1 0.0
0.8 0.1 0.0
0.9 0.1 0.0
1.0 0.1 0.0
0.0 0.2 0.0
0.1 0.2 0.0
0.2 0.2 0.0
0.30000000000000004 0.2 0.0
0.4 0.2 0.0
0.5 0.2 0.0
0.6000000000000001 0.2 0.0
0.7000000000000001 0.2 0.0
0.8 0.2 0.0
0.9 0.2 0.0
1.0 0.2 0.0
0.0 0.30000000000000004 0.0
0.1 0.30000000000000004 0.0
0.2 0.30000000000000004 0.0
0.30000000000000004 0.30000000000000004 0.0
0.4 0.30000000000000004 0.0
0.5 0.30000000000000004 0.0
0.6000000000000001 0.30000000000000004 0.0
0.7000000000000001 0.30000000000000004 0.0
0.8 0.30000000000000004 0.0
0.9 0.30000000000000004 0.0
1.0 0.30000000000000004 0.0
0.0 0.4 0.0
0.1 0.4 0.0
0.2 0.4 0.0
0.30000000000000004 0.4 0.0
0.4 0.4 0.0
0.5 0.4 0.0
0.6000000000000001 0.4 0.0
0.7000000000000001 0.4 0.0
0.8 0.4 0.0
0.9 0.4 0.0
1.0 0.4 0.0
0.0 0.5 0.0
0.1 0.5 0.0
0.2 0.5 0.0
0.30000000000000004 0.5 0.0
0.4 0.5 0.0
0.5 0.5 0.0
0.6000000000000001 0.5 0.0
0.7000000000000001 0.5 0.0
0.8 0.5 0.0
0.9 0.5 0.0
1.0 0.5 0.0
0.0 0.6000000000000001 0.0
0.1 0.6000000000000001 0.0
0.2 0.6000000000000001 0.0
0.30000000000000004 0.6000000000000001 0.0
0.4 0.6000000000000001 0.0
0.5 0.6000000000000001 0.0
0.6000000000000001 0.6000000000000001 0.0
0.7000000000000001 0.6000000000000001 0.0
0.8 0.6000000000000001 0.0
0.9 0.6000000000000001 0.0
1.0 0.6000000000000001 0.0
0.0 0.7000000000000001 0.0
0.1 0.7000000000000001 0.0
0.2 0.7000000000000001 0.0
0.30000000000000004 0.7000000000000001 0.0
0.4 0.7000000000000001 0.0
0.5 0.7000000000000001 0.0
0.6000000000000001 0.7000000000000001 0.0
0.7000000000000001 0.7000000000000001 0.0
0.8 0.7000000000000001 0.0
0.9 0.7000000000000001 0.0
1.0 0.7000000000000001 0.0
0.0 0.8 0.0
0.1 0.8 0.0
0.2 0.8 0.0
0.30000000000000004 0.8 0.0
0.4 0.8 0.0
0.5 0.8 0.0
0.6000000000000001 0.8 0.0
0.7000000000000001 0.8 0.0
0.8 0.8 0.0
0.9 0.8 0.0
1.0 0.8 0.0
0.0 0.9 0.0
0.1 0.9 0.0
0.2 0.9 0.0
0.30000000000000004 0.9 0.0
0.4 0.9 0.0
0.5 0.9 0.0
0.6000000000000001 0.9 0.0
0.7000000000000001 0.9 0.0
0.8 0.9 0.0
0.9 0.9 0.0
1.0 0.9 0.0
0.0 1.0 0.0
0.1 1.0 0.0
0.2 1.0 0.0
0.30000000000000004 1.0 0.0
0.4 1.0 0.0
0.5 1.0 0.0
0.6000000000000001 1.0 0.0
0.7000000000000001 1.0 0.0
0.8 1.0 0.0
0.9 1.0 0.0
1.0 1.0 0.0
0.0 0.0 0.1
0.1 0.0 0.1
0.2 0.0 0.1
0.30000000000000004 0.0 0.1
0.4 0.0 0.1
0.5 0.0 0.1
0.6000000000000001 0.0 0.1
0.7000000000000001 0.0 0.1
0.8 0.0 0.1
0.9 0.0 0.1
1.0 0.0 0.1
0.0 0.1 0.1
0.1 0.1 0.1
0.2 0.1 0.1
0.30000000000000004 0.1 0.1
0.4 0.1 0.1
0.5 0.1 0.1
0.6000000000000001 0.1 0.1
0.7000000000000001 0.1 0.1
0.8 0.1 0.1
0.9 0.1 0.1
1.0 0.1 0.1
0.0 0.2 0.1
0.1 0.2 0.1
0.2 0.2 0.1
0.30000000000000004 0.2 0.1
0.4 0.2 0.1
0.5 0.2 0.1
0.6000000000000001 0.2 0.1
0.7000000000000001 0.2 0.1
0.8 0.2 0.1
0.9 0.2 0.1
1.0 0.2 0.1
0.0 0.30000000000000004 0.1
0.1 0.30000000000000004 0.1
0.2 0.30000000000000004 0.1
0.30000000000000004 0.30000000000000004 0.1
0.4 0.30000000000000004 0.1
0.5 0.30000000000000004 0.1
0.6000000000000001 0.30000000000000004 0.1
0.7000000000000001 0.30000000000000004 0.1
0.8 0.30000000000000004 0.1
0.9 0.30000000000000004 0.1
1.0 0.30000000000000004 0.1
0.0 0.4 0.1
0.1 0.4 0.1
0.2 0.4 0.1
0.30000000000000004 0.4 0.1
0.4 0.4 0.1
0.5 0.4 0.1
0.6000000000000001 0.4 0.1
0.7000000000000001 0.4 0.1
0.8 0.4 0.1
0.9 0.4 0.1
1.0 0.4 0.1
0.0 0.5 0.1
0.1 0.5 0.1
0.2 0.5 0.1
0.30000000000000004 0.5 0.1
0.4 0.5 0.1
0.5 0.5 0.1
0.6000000000000001 0.5 0.1
0.7000000000000001 0.5 0.1
0.8 0.5 0.1
0.9 0.5 0.1
1.0 0.5 0.1
0.0 0.6000000000000001 0.1
0.1 0.6000000000000001 0.1
0.2 0.6000000000000001 0.1
0.30000000000000004 0.6000000000000001 0.1
0.4 0.6000000000000001 0.1
0.5 0.6000000000000001 0.1
0.6000000000000001 0.6000000000000001 0.1
0.7000000000000001 0.6000000000000001 0.1
0.8 0.6000000000000001 0.1
0.9 0.6000000000000001 0.1
1.0 0.6000000000000001 0.1
0.0 0.7000000000000001 0.1
0.1 0.7000000000000001 0.1
0.2 0.7000000000000001 0.1
0.30000000000000004 0.7000000000000001 0.1
0.4 0.7000000000000001 0.1
0.5 0.7000000000000001 0.1
0.6000000000000001 0.7000000000000001 0.1
0.7000000000000001 0.7000000000000001 0.1
0.8 0.7000000000000001 0.1
0.9 0.7000000000000001 0.1
1.0 0.7000000000000001 0.1
0.0 0.8 0.1
0.1 0.8 0.1
0.2 0.8 0.1
0.30000000000000004 0.8 0.1
0.4 0.8 0.1
0.5 0.8 0.1
0.6000000000000001 0.8 0.1
0.7000000000000001 0.8 0.1
0.8 0.8 0.1
0.9 0.8 0.1
1.0 0.8 0.1
0.0 0.9 0.1
0.1 0.9 0.1
0.2 0.9 0.1
0.30000000000000004 0.9 0.1
0.4 0.9 0.1
0.5 0.9 0.1
0.6000000000000001 0.9 0.1
0.7000000000000001 0.9 0.1
0.8 0.9 0.1
0.9 0.9 0.1
1.0 0.9 0.1
0.0 1.0 0.1
0.1 1.0 0.1
0.2 1.0 0.1
0.30000000000000004 1.0 0.1
0.4 1.0 0.1
0.5 1.0 0.1
0.6000000000000001 1.0 0.1
0.7000000000000001 1.0 0.1
0.8 1.0 0.1
0.9 1.0 0.1
1.0 1.0 0.1
0.0 0.0 0.2
0.1 0.0 0.2
0.2 0.0 0.2
0.30000000000000004 0.0 0.2
0.4 0.0 0.2
0.5 0.0 0.2
0.6000000000000001 0.0 0.2
0.7000000000000001 0.0 0.2
0.8 0.0 0.2
0.9 0.0 0.2
1.0 0.0 0.2
0.0 0.1 0.2
0.1 0.1 0.2
0.2 0.1 0.2
0.30000000000000004 0.1 0.2
0.4 0.1 0.2
0.5 0.1 0.2
0.6000000000000001 0.1 0.2
0.7000000000000001 0.1 0.2
0.8 0.1 0.2
0.9 0.1 0.2
1.0 0.1 0.2
0.0 0.2 0.2
0.1 0.2 0.2
0.2 0.2 0.2
0.30000000000000004 0.2 0.2
0.4 0.2 0.2
0.5 0.2 0.2
0.6000000000000001 0.2 0.2
0.7000000000000001 0.2 0.2
0.8 0.2 0.2
0.9 0.2 0.2
1.0 0.2 0.2
0.0 0.30000000000000004 0.2
0.1 0.30000000000000004 0.2
0.2 0.30000000000000004 0.2
0.30000000000000004 0.30000000000000004 0.2
0.4 0.30000000000000004 0.2
0.5 0.30000000000000004 0.2
0.6000000000000001 0.30000000000000004 0.2
0.7000000000000001 0.30000000000000004 0.2
0.8 0.30000000000000004 0.2
0.9 0.30000000000000004 0.2
1.0 0.30000000000000004 0.2
0.0 0.4 0.2
0.1 0.4 0.2
0.2 0.4 0.2
0.30000000000000004 0.4 0.2
0.4 0.4 0.2
0.5 0.4 0.2
0.6000000000000001 0.4 0.2
0.7000000000000001 0.4 0.2
0.8 0.4 0.2
0.9 0.4 0.2
1.0 0.4 0.2
0.0 0.5 0.2
0.1 0.5 0.2
0.2 0.5 0.2
0.30000000000000004 0.5 0.2
0.4 0.5 0.2
0.5 0.5 0.2
0.6000000000000001 0.5 0.2
0.7000000000000001 0.5 0.2
0.8 0.5 0.2
0.9 0.5 0.2
1.0 0.5 0.2
0.0 0.6000000000000001 0.2
0.1 0.6000000000000001 0.2
0.2 0.6000000000000001 0.2
0.30000000000000004 0.6000000000000001 0.2
0.4 0.6000000000000001 0.2
0.5 0.6000000000000001 0.2
0.6000000000000001 0.6000000000000001 0.2
0.7000000000000001 0.6000000000000001 0.2
0.8 0.6000000000000001 0.2
0.9 0.6000000000000001 0.2
1.0 0.6000000000000001 0.2
0.0 0.7000000000000001 0.2
0.1 0.7000000000000001 0.2
0.2 0.7000000000000001 0.2
0.30000000000000004 0.7000000000000001 0.2
0.4 0.7000000000000001 0.2
0.5 0.7000000000000001 0.2
0.6000000000000001 0.7000000000000001 0.2
0.7000000000000001 0.7000000000000001 0.2
0.8 0.7000000000000001 0.2
0.9 0.7000000000000001 0.2
1.0 0.7000000000000001 0.2
0.0 0.8 0.2
0.1 0.8 0.2
0.2 0.8 0.2
0.30000000000000004 0.8 0.2
0.4 0.8 0.2
0.5 0.8 0.2
0.6000000000000001 0.8 0.2
0.7000000000000001 0.8 0.2
0.8 0.8 0.2
0.9 0.8 0.2
1.0 0.8 0.2
0.0 0.9 0.2
0.1 0.9 0.2
0.2 0.9 0.2
0.30000000000000004 0.9 0.2
0.4 0.9 0.2
0.5 0.9 0.2
0.6000000000000001 0.9 0.2
0.7000000000000001 0.9 0.2
0.8 0.9 0.2
0.9 0.9 0.2
1.0 0.9 0.2
0.0 1.0 0.2
0.1 1.0 0.2
0.2 1.0 0.2
0.30000000000000004 1.0 0.2
0.4 1.0 0.2
0.5 1.0 0.2
0.6000000000000001 1.0 0.2
0.7000000000000001 1.0 0.2
0.8 1.0 0.2
0.9 1.0 0.2
1.0 1.0 0.2
0.0 0.0 0.30000000000000004
0.1 0.0 0.30000000000000004
0.2 0.0 0.30000000000000004
0.30000000000000004 0.0 0.30000000000000004
0.4 0.0 0.30000000000000004
0.5 0.0 0.30000000000000004
0.6000000000000001 0.0 0.30000000000000004
0.7000000000000001 0.0 0.30000000000000004
0.8 0.0 0.30000000000000004
0.9 0.0 0.30000000000000004
1.0 0.0 0.30000000000000004
0.0 0.1 0.30000000000000004
0.1 0.1 0.30000000000000004
0.2 0.1 0.30000000000000004
0.30000000000000004 0.1 0.30000000000000004
0.4 0.1 0.30000000000000004
0.5 0.1 0.30000000000000004
0.6000000000000001 0.1 0.30000000000000004
0.7000000000000001 0.1 0.30000000000000004
0.8 0.1 0.30000000000000004
0.9 0.1 0.30000000000000004
1.0 0.1 0.30000000000000004
0.0 0.2 0.30000000000000004
0.1 0.2 0.30000000000000004
0.2 0.2 0.30000000000000004
0.30000000000000004 0.2 0.30000000000000004
0.4 0.2 0.30000000000000004
0.5 0.2 0.30000000000000004
0.6000000000000001 0.2 0.30000000000000004
0.7000000000000001 0.2 0.30000000000000004
0.8 0.2 0.30000000000000004
0.9 0.2 0.30000000000000004
1.0 0.2 0.30000000000000004
0.0 0.30000000000000004 0.30000000000000004
0.1 0.30000000000000004 0.30000000000000004
0.2 0.30000000000000004 0.30000000000000004
0.30000000000000004 0.30000000000000004 0.30000000000000004
0.4 0.30000000000000004 0.30000000000000004
0.5 0.30000000000000004 0.30000000000000004
0.6000000000000001 0.30000000000000004 0.30000000000000004
0.7000000000000001 0.30000000000000004 0.30000000000000004
0.8 0.30000000000000004 0.30000000000000004
0.9 0.30000000000000004 0.30000000000000004
1.0 0.30000000000000004 0.30000000000000004
0.0 0.4 0.30000000000000004
0.1 0.4 0.30000000000000004
0.2 0.4 0.30000000000000004
0.30000000000000004 0.4 0.30000000000000004
0.4 0.4 0.30000000000000004
0.5 0.4 0.30000000000000004
0.6000000000000001 0.4 0.30000000000000004
0.7000000000000001 0.4 0.30000000000000004
0.8 0.4 0.30000000000000004
0.9 0.4 0.30000000000000004
1.0 0.4 0.30000000000000004
0.0 0.5 0.30000000000000004
0.1 0.5 0.30000000000000004
0.2 0.5 0.30000000000000004
0.30000000000000004 0.5 0.30000000000000004
0.4 0.5 0.30000000000000004
0.5 0.5 0.30000000000000004
0.6000000000000001 0.5 0.30000000000000004
0.7000000000000001 0.5 0.30000000000000004
0.8 0.5 0.30000000000000004
0.9 0.5 0.30000000000000004
1.0 0.5 0.30000000000000004
0.0 0.6000000000000001 0.30000000000000004
0.1 0.6000000000000001 0.30000000000000004
0.2 0.6000000000000001 0.30000000000000004
0.30000000000000004 0.6000000000000001 0.30000000000000004
[...]
POINT_DATA 1331
VECTORS Disp float
0.0 0.0 0.0
0.0 0.0 0.0
0.0 0.0 0.0
0.0 0.0 0.0
0.0 0.0 0.0
0.0 0.0 0.0
0.0 0.0 0.0
0.0 0.0 0.0
0.0 0.0 0.0
0.0 0.0 0.0
0.0 0.0 0.0
0.06660558373852314 0.015749226287560883 0.06499911036763407
0.05495941602896664 0.007249922211025028 0.031097151944615004
0.0522408379810926 0.004019678892385513 0.02169134195342754
0.0533986622270439 0.0026357849886975687 0.017733560038419124
0.05631268013961852 0.00204464581710329 0.016014883075002057
0.05965663976176362 0.0017835303133899591 0.015081725474829211
0.06282623205332159 0.0015650610768416543 0.014631834424298808
0.06583321738512882 0.001324730111554916 0.014517799247685063
0.0685887216805328 0.0009044283057879313 0.013552421322817894
0.07140622279424878 0.001763868260888257 0.008403409940898889
0.06416156072462684 -0.003113570908979199 -0.03676219749468262
0.1501125708208498 0.045286162788461204 0.08769413814300775
0.12887715185657217 0.01929012501322675 0.053622491855389094
0.12402232358025748 0.010033646203182514 0.03592999284895143
0.12581505143662108 0.005929481929118912 0.02928810317348306
0.13017739793191335 0.004332546193317976 0.026271259794165856
0.13492322949283392 0.003664188475889175 0.024900568310403094
0.13913163034579817 0.0032217068150923595 0.024342245853894814
0.14258567455896096 0.002650972104961257 0.02380660319383639
0.1451912607777115 0.0016009087141946674 0.021648271608273578
0.14697340827734234 0.0012479318154974932 0.007762032794698609
0.1284786312431379 -0.01587537579559581 -0.036637819012027895
0.2373634646012109 0.06987040272213933 0.08440728339683722
0.21074217066283218 0.029361387596827944 0.0607087777629554
0.20546960465178768 0.013824251563968132 0.04429080853564712
0.20854889716207206 0.007509527677020304 0.036993383970109046
0.21455061991776217 0.005056673373493105 0.03387803966826784
0.22115271181674676 0.004061987026256363 0.03271735634853931
0.22753733666332937 0.00342104499906761 0.03249247551665458
0.23348723193849977 0.0023801214300239546 0.032240881063350824
0.2388998776884022 0.00025142413020008236 0.029367334196746527
0.2415200317331001 -0.005213579447540854 0.01659165017278474
0.21641399505376438 -0.03492482977542446 -0.01595452804258965
0.3323863171146911 0.07761712168460318 0.06708204862401418
0.3030688528575657 0.03149581276404496 0.055684786814042674
0.29933704176696146 0.013478536036139022 0.04623470685560175
0.3042246936163871 0.0064915335527809225 0.040998753584952405
0.3117326185051644 0.003792780145447476 0.03864020658432318
0.31984383591478593 0.002636553813639022 0.03785681107493092
0.32795789577063683 0.0017288101825922268 0.03794118119170415
0.335850448976929 1.8111646469023566e-05 0.03817554817010806
0.34297360102327273 -0.004032626117215973 0.0367875320780877
0.34442796989447033 -0.015621896299612185 0.03004082363882902
0.31575299504081794 -0.05507224476928214 0.013267626859287613
0.43231447593403705 0.07087569908588603 0.042094448598799426
0.40249128384130645 0.02574802858987091 0.043919061273336786
0.4014669506135958 0.009507014127944344 0.042876454421349484
0.4080723617674492 0.003482439768815902 0.04109621119786683
0.4163614633264109 0.0011178595465209703 0.039901365543349845
0.4250000000000006 -1.907284108363053e-18 0.039496796436188725
0.4336385366735907 -0.001117859546520756 0.03990136554334996
0.44192763823255254 -0.003482439768815672 0.04109621119786705
0.44853304938640626 -0.00950701412794404 0.04287645442134966
0.44750871615869575 -0.0257480285898705 0.043919061273336814
0.41768552406596526 -0.07087569908588562 0.04209444859879947
0.5342470049591845 0.05507224476928211 0.01326762685928765
0.5055720301055323 0.015621896299612465 0.030040823638828776
0.5070263989767301 0.004032626117216225 0.03678753207808759
0.5141495510230738 -1.8111646468821227e-05 0.03817554817010782
0.5220421042293658 -0.0017288101825921056 0.037941181191703935
0.5301561640852165 -0.0026365538136390344 0.03785681107493078
0.5382673814948382 -0.0037927801454472982 0.038640206584323024
0.5457753063836154 -0.006491533552780795 0.040998753584952176
0.5506629582330409 -0.013478536036138935 0.046234706855601576
0.5469311471424368 -0.031495812764044576 0.055684786814042445
0.5176136828853114 -0.07761712168460269 0.06708204862401378
0.6335860049462381 0.03492482977542448 -0.01595452804258963
0.6084799682669025 0.005213579447540985 0.01659165017278439
0.6111001223116005 -0.0002514241301998917 0.02936733419674619
0.6165127680615028 -0.0023801214300239832 0.032240881063350324
0.6224626633366734 -0.0034210449990675416 0.032492475516654275
0.628847288183256 -0.004061987026256361 0.032717356348539076
0.6354493800822407 -0.005056673373493058 0.0338780396682676
0.6414511028379309 -0.007509527677020203 0.036993383970108595
0.6445303953482151 -0.013824251563968187 0.04429080853564672
0.6392578293371708 -0.02936138759682769 0.06070877776295486
0.612636535398792 -0.06987040272213906 0.08440728339683684
0.721521368756864 0.01587537579559587 -0.036637819012027735
0.7030265917226598 -0.0012479318154974542 0.007762032794698262
0.7048087392222908 -0.001600908714194491 0.021648271608273033
0.707414325441041 -0.002650972104961388 0.023806603193835915
0.7108683696542039 -0.003221706815092362 0.024342245853894544
0.7150767705071682 -0.0036641884758891064 0.024900568310402785
0.7198226020680887 -0.004332546193318035 0.02627125979416554
0.7241849485633811 -0.005929481929118833 0.029288103173482682
0.7259776764197446 -0.010033646203182579 0.03592999284895106
0.7211228481434301 -0.019290125013226612 0.053622491855388706
0.6998874291791528 -0.04528616278846106 0.08769413814300743
0.7858384392753742 0.003113570908979426 -0.036762197494682534
0.7785937772057522 -0.0017638682608882177 0.008403409940898386
0.781411278319468 -0.000904428305787887 0.01355242132281733
0.7841667826148718 -0.0013247301115549583 0.0145177992476848
0.787173767946679 -0.0015650610768416686 0.01463183442429862
0.7903433602382371 -0.0017835303133898876 0.015081725474829048
0.7936873198603824 -0.0020446458171033094 0.01601488307500182
0.7966013377729569 -0.0026357849886975353 0.017733560038418826
0.7977591620189082 -0.00401967889238552 0.021691341953427406
0.7950405839710344 -0.007249922211024868 0.031097151944614872
0.7833944162614782 -0.015749226287560765 0.06499911036763356
0.8500000000000002 0.0 0.0
0.8500000000000002 0.0 0.0
0.8500000000000002 0.0 0.0
0.8500000000000002 0.0 0.0
0.8500000000000002 0.0 0.0
0.8500000000000002 0.0 0.0
0.8500000000000002 0.0 0.0
0.8500000000000002 0.0 0.0
0.8500000000000002 0.0 0.0
0.8500000000000002 0.0 0.0
0.8500000000000002 0.0 0.0
0.0 0.0 0.0
0.0 0.0 0.0
0.0 0.0 0.0
0.0 0.0 0.0
0.0 0.0 0.0
0.0 0.0 0.0
0.0 0.0 0.0
0.0 0.0 0.0
0.0 0.0 0.0
0.0 0.0 0.0
0.0 0.0 0.0
0.07479320094440134 0.012375357289215398 0.046194168587477574
0.06553929710259448 0.004434191523008647 0.022325368482912077
0.06332396882624258 0.002178274664340378 0.015478897890336693
0.06361422525425643 0.0011345977213260698 0.012321044418935185
0.06536591464463379 0.0007181306511166754 0.010947541391457262
0.06777079883577995 0.0004973316641295811 0.010382868389819446
0.0705058780804345 0.0002687797865489419 0.010290303484300673
0.0736136389874451 -7.849815350819471e-05 0.01044195245099546
0.0770911342768355 -0.0008866374456249534 0.010073827734055135
0.08118060973880072 -0.001770320873800514 0.0054589281016725
0.07853738985105158 -0.009343567280633618 -0.02890997379119089
0.16143047415929695 0.03968600516329726 0.06391230105885695
0.14139528915257485 0.015568174643768074 0.04009991102291929
0.13580969401534823 0.007693124122170439 0.026815428783169525
0.1357131527305373 0.004211455375785539 0.021905305211819357
0.13822331171754176 0.0026456386512544523 0.019787450661728767
0.14190559366610625 0.00170817045253343 0.019108136003943843
0.14614475374016755 0.000785726012246622 0.019093088574827274
0.15075392098489865 -0.0005852080451045378 0.01904449490543899
0.15544314714351212 -0.0030593787350853847 0.01739246838478585
0.15897728239685177 -0.007118222498556542 0.005663502141115882
0.14668703973257693 -0.026918317791978615 -0.02842588825342273
0.2504216104343889 0.06619133730973956 0.06288549579232901
0.22339075732806496 0.027975603037989197 0.04630606607694867
0.21596524882302268 0.013281700983055273 0.034223734273826925
0.21670178889922814 0.007133065912146428 0.028787675382149033
0.22080950135173794 0.0041537033186195 0.02669734710501567
0.22640201559812767 0.002299502250064899 0.0261380195315483
0.23261745725338479 0.000501840081900763 0.02619371484186557
0.23895091432027205 -0.002146802510341782 0.025964002917815657
0.24481235936892756 -0.006656878118560127 0.023112438099151433
0.24731828793891092 -0.015984610393256094 0.012822740882123047
0.22771545808359953 -0.047545734648925544 -0.0129966176092058
0.3442398947617952 0.07952468187551427 0.05118628360139711
0.3139143811029843 0.0345337222339199 0.04332780374479025
0.30695332628735184 0.01592515470535495 0.036426387757045806
0.3094629381401748 0.008095651719389309 0.032737477567685594
0.31537553861290074 0.004156132907936064 0.03126147275181293
0.3226476691825895 0.0016045951997970234 0.03090093179505108
0.33032740438988106 -0.0008958167645509789 0.030997783432457536
0.337642586558846 -0.004559369893405783 0.030828820089318344
0.34340457656826995 -0.011130371677252069 0.029084034494852896
0.34275796430810906 -0.02592609483370103 0.02373899620583491
0.31703312461483013 -0.0665986846697566 0.009884554973993022
0.4396357103072363 0.07852008328836002 0.032368656126169355
0.40994737226439015 0.033145140453480354 0.03461921119303349
0.4055523584517298 0.014830643583939932 0.03402429916719679
0.40992281441315526 0.00692711903034298 0.03319771515739932
0.4170156222245399 0.002784661936191323 0.03269097087401551
0.42500000000000093 1.4827697543979712e-16 0.032507824653798346
0.4329843777754619 -0.0027846619361910963 0.03269097087401555
0.4400771855868467 -0.006927119030342566 0.03319771515739954
0.44444764154827204 -0.01483064358393961 0.03402429916719694
0.440052627735612 -0.033145140453479764 0.03461921119303349
0.4103642896927657 -0.07852008328835958 0.03236865612616921
0.5329668753851721 0.06659868466975669 0.009884554973993213
0.5072420356918936 0.025926094833701438 0.02373899620583472
0.5065954234317325 0.011130371677252376 0.02908403449485271
0.5123574134411565 0.004559369893405993 0.030828820089318205
0.5196725956101215 0.000895816764551113 0.030997783432457404
0.527352330817413 -0.0016045951997967496 0.030900931795050955
0.5346244613871015 -0.004156132907935836 0.0312614727518129
0.5405370618598276 -0.008095651719388879 0.03273747756768546
0.5430466737126505 -0.0159251547053546 0.03642638775704574
0.5360856188970181 -0.03453372223391947 0.043327803744790006
0.5057601052382074 -0.07952468187551387 0.05118628360139678
0.6222845419164029 0.04754573464892545 -0.012996617609205636
0.602681712061092 0.015984610393256254 0.012822740882122841
0.6051876406310754 0.006656878118560412 0.02311243809915116
0.6110490856797306 0.0021468025103418146 0.025964002917815268
0.6173825427466177 -0.0005018400819008147 0.02619371484186528
0.6235979844018751 -0.00229950225006469 0.026138019531548
0.6291904986482652 -0.004153703318619231 0.026697347105015347
0.6332982111007748 -0.007133065912146185 0.028787675382148697
0.6340347511769803 -0.01328170098305505 0.034223734273826634
0.626609242671938 -0.02797560303798906 0.04630606607694832
0.5995783895656138 -0.06619133730973942 0.06288549579232873
0.7033129602674248 0.026918317791978643 -0.0284258882534227
0.6910227176031503 0.0071182224985566435 0.005663502141115516
0.6945568528564902 0.0030593787350855985 0.01739246838478539
0.6992460790151035 0.0005852080451045211 0.01904449490543857
0.7038552462598344 -0.0007857260122467197 0.019093088574827
0.708094406333896 -0.0017081704525333807 0.019108136003943538
0.7117766882824608 -0.002645638651254143 0.019787450661728472
0.7142868472694651 -0.004211455375785429 0.021905305211818996
0.7141903059846542 -0.0076931241221703224 0.02681542878316915
0.7086047108474276 -0.015568174643768041 0.040099911022919016
0.6885695258407056 -0.039686005163297254 0.06391230105885663
0.7714626101489495 0.009343567280633677 -0.028909973791190674
0.7688193902612004 0.0017703208738005397 0.00545892810167214
0.7729088657231656 0.0008866374456250547 0.01007382773405472
0.7763863610125559 7.849815350816354e-05 0.010441952450995185
0.7794941219195664 -0.0002687797865489995 0.010290303484300427
0.7822292011642209 -0.0004973316641296018 0.010382868389819234
0.7846340853553673 -0.0007181306511165408 0.010947541391457
0.7863857747457447 -0.0011345977213260145 0.01232104441893494
0.7866760311737585 -0.0021782746643403137 0.01547889789033655
0.7844607028974068 -0.004434191523008652 0.022325368482911955
0.7752067990556 -0.012375357289215362 0.04619416858747704
0.8500000000000002 0.0 0.0
0.8500000000000002 0.0 0.0
0.8500000000000002 0.0 0.0
0.8500000000000002 0.0 0.0
0.8500000000000002 0.0 0.0
0.8500000000000002 0.0 0.0
0.8500000000000002 0.0 0.0
0.8500000000000002 0.0 0.0
0.8500000000000002 0.0 0.0
0.8500000000000002 0.0 0.0
0.8500000000000002 0.0 0.0
0.0 0.0 0.0
0.0 0.0 0.0
0.0 0.0 0.0
0.0 0.0 0.0
0.0 0.0 0.0
0.0 0.0 0.0
0.0 0.0 0.0
0.0 0.0 0.0
0.0 0.0 0.0
0.0 0.0 0.0
0.0 0.0 0.0
0.08196563670411369 0.012516155591343753 0.031411820161929616
0.07152819624805136 0.004244258391399603 0.015995941764385378
0.06901849782952967 0.0022451376031127437 0.01134230224034946
0.06877413216647396 0.0010987951526588151 0.008861402546201677
0.07000607731974251 0.0006193142158077371 0.007688522072964715
0.07196940182463776 0.0003083640179165987 0.007257318365127052
0.0744614770915212 -1.7790430778581213e-05 0.007261877194248738
0.0775700763731598 -0.0005314015842531844 0.007502037431086984
0.08152013153502592 -0.0014344429867066508 0.007473690492800817
0.08632593965486832 -0.0027352107074966473 0.004337779441582563
0.0867901122637684 -0.00966748347331438 -0.019031705897170237
0.16846158143762607 0.038370030395457895 0.04423872278495916
0.14901166669803056 0.01545171323994506 0.028963551168661797
0.14291597989273216 0.007453436793458797 0.019541843980080915
0.1420968822735045 0.0037928575898496407 0.015859782947211104
0.14399290850287935 0.002049858542354749 0.014275469559239544
0.14729007671250954 0.0009431091590036684 0.01386082840784029
0.15144643969431582 -0.0001693833304358683 0.013992883270050549
0.1562378503393616 -0.0018332584687027395 0.014130777272286633
0.1615632764855564 -0.004537383765382358 0.013037200319463017
0.16604652224774094 -0.009806812613362855 0.004718217965396906
0.1602059031207157 -0.028224557703573523 -0.018427760004683658
0.2554861329964187 0.06305301530224534 0.044339088878736846
0.2306042150457103 0.028052652265595023 0.033418292352840134
0.22245199755591763 0.013165830340497836 0.025083325778926555
0.22220858610119412 0.00670213884148993 0.021055479069100106
0.22553701446366475 0.0034879036885789843 0.019609670849471673
0.23060455488448314 0.0014100391018463658 0.01931930118807989
0.23654607818841838 -0.0006341536347788683 0.019446515126384952
0.24275672877439686 -0.0035660221227310465 0.019235191459138774
0.2485806998340873 -0.00847142661842506 0.016919409568318545
0.2509905546804191 -0.019175038592186833 0.00987338633467513
0.23798266653877673 -0.048208348039276344 -0.007445329431793785
0.34629719442944695 0.07611825131299968 0.03698329813029619
0.31961988432046834 0.035213276777860604 0.031543111222579565
0.31166105238869035 0.016378797746373217 0.026673784558649175
0.3129655063126708 0.00810271773488333 0.02411213672380027
0.31805190992393717 0.003867387292071791 0.02321001431879336
0.324757221210743 0.001044605121667064 0.023067325195901194
0.33200222449011846 -0.0017468425983366979 0.02312649378974015
0.33888429084253335 -0.005719415573102664 0.022769611968064544
0.3439884144848111 -0.01282297273224976 0.02120277364592319
0.34266904659873515 -0.02859965722829943 0.017705626817984724
0.3228083670675398 -0.06574863505570493 0.00848992936850355
0.4380438983348142 0.07616568606781522 0.024151877757133396
0.4131699725683883 0.03487166385065676 0.025520729011398444
0.4077778730566555 0.016015806020159413 0.024896286683764427
0.4110631483791335 0.007569487377501764 0.024542852804189306
0.4174843677248872 0.003084525362037045 0.024427339033283178
0.4250000000000012 8.826576761840866e-17 0.024380195533388348
0.4325156322751152 -0.0030845253620368856 0.02442733903328316
0.43893685162086915 -0.007569487377501396 0.024542852804189413
0.4422221269433471 -0.016015806020159083 0.024896286683764465
0.4368300274316144 -0.03487166385065635 0.02552072901139849
0.41195610166518837 -0.07616568606781494 0.02415187775713318
0.5271916329324626 0.0657486350557053 0.008489929368503839
0.5073309534012675 0.028599657228299956 0.01770562681798463
0.5060115855151911 0.012822972732250085 0.021202773645923056
0.5111157091574688 0.005719415573102996 0.022769611968064415
0.5179977755098835 0.0017468425983367837 0.023126493789740077
0.5252427787892591 -0.0010446051216669635 0.023067325195901142
0.531948090076065 -0.003867387292071561 0.023210014318793354
0.5370344936873316 -0.008102717734882955 0.024112136723800248
0.5383389476113121 -0.016378797746372797 0.026673784558649105
0.5303801156795341 -0.03521327677786024 0.0315431112225794
0.5037028055705556 -0.07611825131299925 0.03698329813029589
0.6120173334612258 0.04820834803927647 -0.007445329431793726
0.5990094453195839 0.019175038592187187 0.009873386334675015
0.6014193001659156 0.00847142661842526 0.016919409568318364
0.6072432712256061 0.0035660221227313015 0.019235191459138535
0.6134539218115843 0.0006341536347788658 0.01944651512638477
0.6193954451155195 -0.0014100391018463316 0.019319301188079615
0.6244629855363379 -0.003487903688578856 0.0196096708494714
0.6277914138988087 -0.00670213884148958 0.02105547906909982
0.627548002444085 -0.013165830340497531 0.02508332577892634
0.6193957849542923 -0.02805265226559486 0.03341829235283988
0.5945138670035839 -0.06305301530224508 0.04433908887873669
0.6897940968792863 0.02822455770357359 -0.01842776000468363
0.6839534777522613 0.009806812613363084 0.00471821796539665
0.6884367235144457 0.0045373837653824795 0.013037200319462712
0.6937621496606406 0.0018332584687029256 0.01413077727228636
0.6985535603056862 0.00016938333043578193 0.013992883270050336
0.7027099232874926 -0.0009431091590036124 0.01386082840783999
0.7060070914971227 -0.0020498585423547933 0.014275469559239294
0.7079031177264979 -0.003792857589849363 0.015859782947210823
0.7070840201072702 -0.00745343679345863 0.019541843980080673
0.7009883333019717 -0.015451713239945033 0.028963551168661533
0.6815384185623762 -0.03837003039545791 0.04423872278495885
0.7632098877362321 0.009667483473314437 -0.019031705897170268
0.7636740603451326 0.00273521070749678 0.0043377794415822
0.7684798684649748 0.0014344429867066565 0.007473690492800531
0.772429923626841 0.0005314015842532425 0.00750203743108681
0.7755385229084795 1.7790430778549385e-05 0.007261877194248469
0.778030598175363 -0.0003083640179165865 0.00725731836512681
0.7799939226802582 -0.0006193142158078073 0.007688522072964514
0.7812258678335269 -0.001098795152658725 0.008861402546201517
0.7809815021704712 -0.002245137603112668 0.011342302240349277
0.7784718037519498 -0.0042442583913995646 0.01599594176438523
0.7680343632958875 -0.012516155591343772 0.0314118201619291
0.8500000000000002 0.0 0.0
0.8500000000000002 0.0 0.0
0.8500000000000002 0.0 0.0
0.8500000000000002 0.0 0.0
0.8500000000000002 0.0 0.0
0.8500000000000002 0.0 0.0
0.8500000000000002 0.0 0.0
0.8500000000000002 0.0 0.0
0.8500000000000002 0.0 0.0
0.8500000000000002 0.0 0.0
0.8500000000000002 0.0 0.0
0.0 0.0 0.0
0.0 0.0 0.0
0.0 0.0 0.0
0.0 0.0 0.0
0.0 0.0 0.0
0.0 0.0 0.0
0.0 0.0 0.0
0.0 0.0 0.0
0.0 0.0 0.0
0.0 0.0 0.0
0.0 0.0 0.0
0.08569331413052166 0.012253495863252915 0.0192047555948344
0.0743962591603432 0.003907352697038942 0.010352219076971585
0.07199835627792353 0.002151925193386611 0.007558881794409299
0.07170897305194221 0.0009856330841341236 0.005863706127928355