# vtk DataFile Version 3.0
Some data
ASCII
DATASET UNSTRUCTURED_GRID
POINTS 1331 float
0.0 0.0 0.0
0.1 0.0 0.0
0.2 0.0 0.0
0.30000000000000004 0.0 0.0
0.4 0.0 0.0
0.5 0.0 0.0
0.6000000000000001 0.0 0.0
0.7000000000000001 0.0 0.0
0.8 0.0 0.0
0.9 0.0 0.0
1.0 0.0 0.0
0.0 0.1 0.0
0.1 0.1 0.0
0.2 0.1 0.0
0.30000000000000004 0.1 0.0
0.4 0.1 0.0
0.5 0.1 0.0
0.6000000000000001 0.1 0.0
0.7000000000000001 0.1 0.0
0.8 0.1 0.0
0.9 0.1 0.0
1.0 0.1 0.0
0.0 0.2 0.0
0.1 0.2 0.0
0.2 0.2 0.0
0.30000000000000004 0.2 0.0
0.4 0.2 0.0
0.5 0.2 0.0
0.6000000000000001 0.2 0.0
0.7000000000000001 0.2 0.0
0.8 0.2 0.0
0.9 0.2 0.0
1.0 0.2 0.0
0.0 0.30000000000000004 0.0
0.1 0.30000000000000004 0.0
0.2 0.30000000000000004 0.0
0.30000000000000004 0.30000000000000004 0.0
0.4 0.30000000000000004 0.0
0.5 0.30000000000000004 0.0
0.6000000000000001 0.30000000000000004 0.0
0.7000000000000001 0.30000000000000004 0.0
0.8 0.30000000000000004 0.0
0.9 0.30000000000000004 0.0
1.0 0.30000000000000004 0.0
0.0 0.4 0.0
0.1 0.4 0.0
0.2 0.4 0.0
0.30000000000000004 0.4 0.0
0.4 0.4 0.0
0.5 0.4 0.0
0.6000000000000001 0.4 0.0
0.7000000000000001 0.4 0.0
0.8 0.4 0.0
0.9 0.4 0.0
1.0 0.4 0.0
0.0 0.5 0.0
0.1 0.5 0.0
0.2 0.5 0.0
0.30000000000000004 0.5 0.0
0.4 0.5 0.0
0.5 0.5 0.0
0.6000000000000001 0.5 0.0
0.7000000000000001 0.5 0.0
0.8 0.5 0.0
0.9 0.5 0.0
1.0 0.5 0.0
0.0 0.6000000000000001 0.0
0.1 0.6000000000000001 0.0
0.2 0.6000000000000001 0.0
0.30000000000000004 0.6000000000000001 0.0
0.4 0.6000000000000001 0.0
0.5 0.6000000000000001 0.0
0.6000000000000001 0.6000000000000001 0.0
0.7000000000000001 0.6000000000000001 0.0
0.8 0.6000000000000001 0.0
0.9 0.6000000000000001 0.0
1.0 0.6000000000000001 0.0
0.0 0.7000000000000001 0.0
0.1 0.7000000000000001 0.0
0.2 0.7000000000000001 0.0
0.30000000000000004 0.7000000000000001 0.0
0.4 0.7000000000000001 0.0
0.5 0.7000000000000001 0.0
0.6000000000000001 0.7000000000000001 0.0
0.7000000000000001 0.7000000000000001 0.0
0.8 0.7000000000000001 0.0
0.9 0.7000000000000001 0.0
1.0 0.7000000000000001 0.0
0.0 0.8 0.0
0.1 0.8 0.0
0.2 0.8 0.0
0.30000000000000004 0.8 0.0
0.4 0.8 0.0
0.5 0.8 0.0
0.6000000000000001 0.8 0.0
0.7000000000000001 0.8 0.0
0.8 0.8 0.0
0.9 0.8 0.0
1.0 0.8 0.0
0.0 0.9 0.0
0.1 0.9 0.0
0.2 0.9 0.0
0.30000000000000004 0.9 0.0
0.4 0.9 0.0
0.5 0.9 0.0
0.6000000000000001 0.9 0.0
0.7000000000000001 0.9 0.0
0.8 0.9 0.0
0.9 0.9 0.0
1.0 0.9 0.0
0.0 1.0 0.0
0.1 1.0 0.0
0.2 1.0 0.0
0.30000000000000004 1.0 0.0
0.4 1.0 0.0
0.5 1.0 0.0
0.6000000000000001 1.0 0.0
0.7000000000000001 1.0 0.0
0.8 1.0 0.0
0.9 1.0 0.0
1.0 1.0 0.0
0.0 0.0 0.1
0.1 0.0 0.1
0.2 0.0 0.1
0.30000000000000004 0.0 0.1
0.4 0.0 0.1
0.5 0.0 0.1
0.6000000000000001 0.0 0.1
0.7000000000000001 0.0 0.1
0.8 0.0 0.1
0.9 0.0 0.1
1.0 0.0 0.1
0.0 0.1 0.1
0.1 0.1 0.1
0.2 0.1 0.1
0.30000000000000004 0.1 0.1
0.4 0.1 0.1
0.5 0.1 0.1
0.6000000000000001 0.1 0.1
0.7000000000000001 0.1 0.1
0.8 0.1 0.1
0.9 0.1 0.1
1.0 0.1 0.1
0.0 0.2 0.1
0.1 0.2 0.1
0.2 0.2 0.1
0.30000000000000004 0.2 0.1
0.4 0.2 0.1
0.5 0.2 0.1
0.6000000000000001 0.2 0.1
0.7000000000000001 0.2 0.1
0.8 0.2 0.1
0.9 0.2 0.1
1.0 0.2 0.1
0.0 0.30000000000000004 0.1
0.1 0.30000000000000004 0.1
0.2 0.30000000000000004 0.1
0.30000000000000004 0.30000000000000004 0.1
0.4 0.30000000000000004 0.1
0.5 0.30000000000000004 0.1
0.6000000000000001 0.30000000000000004 0.1
0.7000000000000001 0.30000000000000004 0.1
0.8 0.30000000000000004 0.1
0.9 0.30000000000000004 0.1
1.0 0.30000000000000004 0.1
0.0 0.4 0.1
0.1 0.4 0.1
0.2 0.4 0.1
0.30000000000000004 0.4 0.1
0.4 0.4 0.1
0.5 0.4 0.1
0.6000000000000001 0.4 0.1
0.7000000000000001 0.4 0.1
0.8 0.4 0.1
0.9 0.4 0.1
1.0 0.4 0.1
0.0 0.5 0.1
0.1 0.5 0.1
0.2 0.5 0.1
0.30000000000000004 0.5 0.1
0.4 0.5 0.1
0.5 0.5 0.1
0.6000000000000001 0.5 0.1
0.7000000000000001 0.5 0.1
0.8 0.5 0.1
0.9 0.5 0.1
1.0 0.5 0.1
0.0 0.6000000000000001 0.1
0.1 0.6000000000000001 0.1
0.2 0.6000000000000001 0.1
0.30000000000000004 0.6000000000000001 0.1
0.4 0.6000000000000001 0.1
0.5 0.6000000000000001 0.1
0.6000000000000001 0.6000000000000001 0.1
0.7000000000000001 0.6000000000000001 0.1
0.8 0.6000000000000001 0.1
0.9 0.6000000000000001 0.1
1.0 0.6000000000000001 0.1
0.0 0.7000000000000001 0.1
0.1 0.7000000000000001 0.1
0.2 0.7000000000000001 0.1
0.30000000000000004 0.7000000000000001 0.1
0.4 0.7000000000000001 0.1
0.5 0.7000000000000001 0.1
0.6000000000000001 0.7000000000000001 0.1
0.7000000000000001 0.7000000000000001 0.1
0.8 0.7000000000000001 0.1
0.9 0.7000000000000001 0.1
1.0 0.7000000000000001 0.1
0.0 0.8 0.1
0.1 0.8 0.1
0.2 0.8 0.1
0.30000000000000004 0.8 0.1
0.4 0.8 0.1
0.5 0.8 0.1
0.6000000000000001 0.8 0.1
0.7000000000000001 0.8 0.1
0.8 0.8 0.1
0.9 0.8 0.1
1.0 0.8 0.1
0.0 0.9 0.1
0.1 0.9 0.1
0.2 0.9 0.1
0.30000000000000004 0.9 0.1
0.4 0.9 0.1
0.5 0.9 0.1
0.6000000000000001 0.9 0.1
0.7000000000000001 0.9 0.1
0.8 0.9 0.1
0.9 0.9 0.1
1.0 0.9 0.1
0.0 1.0 0.1
0.1 1.0 0.1
0.2 1.0 0.1
0.30000000000000004 1.0 0.1
0.4 1.0 0.1
0.5 1.0 0.1
0.6000000000000001 1.0 0.1
0.7000000000000001 1.0 0.1
0.8 1.0 0.1
0.9 1.0 0.1
1.0 1.0 0.1
0.0 0.0 0.2
0.1 0.0 0.2
0.2 0.0 0.2
0.30000000000000004 0.0 0.2
0.4 0.0 0.2
0.5 0.0 0.2
0.6000000000000001 0.0 0.2
0.7000000000000001 0.0 0.2
0.8 0.0 0.2
0.9 0.0 0.2
1.0 0.0 0.2
0.0 0.1 0.2
0.1 0.1 0.2
0.2 0.1 0.2
0.30000000000000004 0.1 0.2
0.4 0.1 0.2
0.5 0.1 0.2
0.6000000000000001 0.1 0.2
0.7000000000000001 0.1 0.2
0.8 0.1 0.2
0.9 0.1 0.2
1.0 0.1 0.2
0.0 0.2 0.2
0.1 0.2 0.2
0.2 0.2 0.2
0.30000000000000004 0.2 0.2
0.4 0.2 0.2
0.5 0.2 0.2
0.6000000000000001 0.2 0.2
0.7000000000000001 0.2 0.2
0.8 0.2 0.2
0.9 0.2 0.2
1.0 0.2 0.2
0.0 0.30000000000000004 0.2
0.1 0.30000000000000004 0.2
0.2 0.30000000000000004 0.2
0.30000000000000004 0.30000000000000004 0.2
0.4 0.30000000000000004 0.2
0.5 0.30000000000000004 0.2
0.6000000000000001 0.30000000000000004 0.2
0.7000000000000001 0.30000000000000004 0.2
0.8 0.30000000000000004 0.2
0.9 0.30000000000000004 0.2
1.0 0.30000000000000004 0.2
0.0 0.4 0.2
0.1 0.4 0.2
0.2 0.4 0.2
0.30000000000000004 0.4 0.2
0.4 0.4 0.2
0.5 0.4 0.2
0.6000000000000001 0.4 0.2
0.7000000000000001 0.4 0.2
0.8 0.4 0.2
0.9 0.4 0.2
1.0 0.4 0.2
0.0 0.5 0.2
0.1 0.5 0.2
0.2 0.5 0.2
0.30000000000000004 0.5 0.2
0.4 0.5 0.2
0.5 0.5 0.2
0.6000000000000001 0.5 0.2
0.7000000000000001 0.5 0.2
0.8 0.5 0.2
0.9 0.5 0.2
1.0 0.5 0.2
0.0 0.6000000000000001 0.2
0.1 0.6000000000000001 0.2
0.2 0.6000000000000001 0.2
0.30000000000000004 0.6000000000000001 0.2
0.4 0.6000000000000001 0.2
0.5 0.6000000000000001 0.2
0.6000000000000001 0.6000000000000001 0.2
0.7000000000000001 0.6000000000000001 0.2
0.8 0.6000000000000001 0.2
0.9 0.6000000000000001 0.2
1.0 0.6000000000000001 0.2
0.0 0.7000000000000001 0.2
0.1 0.7000000000000001 0.2
0.2 0.7000000000000001 0.2
0.30000000000000004 0.7000000000000001 0.2
0.4 0.7000000000000001 0.2
0.5 0.7000000000000001 0.2
0.6000000000000001 0.7000000000000001 0.2
0.7000000000000001 0.7000000000000001 0.2
0.8 0.7000000000000001 0.2
0.9 0.7000000000000001 0.2
1.0 0.7000000000000001 0.2
0.0 0.8 0.2
0.1 0.8 0.2
0.2 0.8 0.2
0.30000000000000004 0.8 0.2
0.4 0.8 0.2
0.5 0.8 0.2
0.6000000000000001 0.8 0.2
0.7000000000000001 0.8 0.2
0.8 0.8 0.2
0.9 0.8 0.2
1.0 0.8 0.2
0.0 0.9 0.2
0.1 0.9 0.2
0.2 0.9 0.2
0.30000000000000004 0.9 0.2
0.4 0.9 0.2
0.5 0.9 0.2
0.6000000000000001 0.9 0.2
0.7000000000000001 0.9 0.2
0.8 0.9 0.2
0.9 0.9 0.2
1.0 0.9 0.2
0.0 1.0 0.2
0.1 1.0 0.2
0.2 1.0 0.2
0.30000000000000004 1.0 0.2
0.4 1.0 0.2
0.5 1.0 0.2
0.6000000000000001 1.0 0.2
0.7000000000000001 1.0 0.2
0.8 1.0 0.2
0.9 1.0 0.2
1.0 1.0 0.2
0.0 0.0 0.30000000000000004
0.1 0.0 0.30000000000000004
0.2 0.0 0.30000000000000004
0.30000000000000004 0.0 0.30000000000000004
0.4 0.0 0.30000000000000004
0.5 0.0 0.30000000000000004
0.6000000000000001 0.0 0.30000000000000004
0.7000000000000001 0.0 0.30000000000000004
0.8 0.0 0.30000000000000004
0.9 0.0 0.30000000000000004
1.0 0.0 0.30000000000000004
0.0 0.1 0.30000000000000004
0.1 0.1 0.30000000000000004
0.2 0.1 0.30000000000000004
0.30000000000000004 0.1 0.30000000000000004
0.4 0.1 0.30000000000000004
0.5 0.1 0.30000000000000004
0.6000000000000001 0.1 0.30000000000000004
0.7000000000000001 0.1 0.30000000000000004
0.8 0.1 0.30000000000000004
0.9 0.1 0.30000000000000004
1.0 0.1 0.30000000000000004
0.0 0.2 0.30000000000000004
0.1 0.2 0.30000000000000004
0.2 0.2 0.30000000000000004
0.30000000000000004 0.2 0.30000000000000004
0.4 0.2 0.30000000000000004
0.5 0.2 0.30000000000000004
0.6000000000000001 0.2 0.30000000000000004
0.7000000000000001 0.2 0.30000000000000004
0.8 0.2 0.30000000000000004
0.9 0.2 0.30000000000000004
1.0 0.2 0.30000000000000004
0.0 0.30000000000000004 0.30000000000000004
0.1 0.30000000000000004 0.30000000000000004
0.2 0.30000000000000004 0.30000000000000004
0.30000000000000004 0.30000000000000004 0.30000000000000004
0.4 0.30000000000000004 0.30000000000000004
0.5 0.30000000000000004 0.30000000000000004
0.6000000000000001 0.30000000000000004 0.30000000000000004
0.7000000000000001 0.30000000000000004 0.30000000000000004
0.8 0.30000000000000004 0.30000000000000004
0.9 0.30000000000000004 0.30000000000000004
1.0 0.30000000000000004 0.30000000000000004
0.0 0.4 0.30000000000000004
0.1 0.4 0.30000000000000004
0.2 0.4 0.30000000000000004
0.30000000000000004 0.4 0.30000000000000004
0.4 0.4 0.30000000000000004
0.5 0.4 0.30000000000000004
0.6000000000000001 0.4 0.30000000000000004
0.7000000000000001 0.4 0.30000000000000004
0.8 0.4 0.30000000000000004
0.9 0.4 0.30000000000000004
1.0 0.4 0.30000000000000004
0.0 0.5 0.30000000000000004
0.1 0.5 0.30000000000000004
0.2 0.5 0.30000000000000004
0.30000000000000004 0.5 0.30000000000000004
0.4 0.5 0.30000000000000004
0.5 0.5 0.30000000000000004
0.6000000000000001 0.5 0.30000000000000004
0.7000000000000001 0.5 0.30000000000000004
0.8 0.5 0.30000000000000004
0.9 0.5 0.30000000000000004
1.0 0.5 0.30000000000000004
0.0 0.6000000000000001 0.30000000000000004
0.1 0.6000000000000001 0.30000000000000004
0.2 0.6000000000000001 0.30000000000000004
0.30000000000000004 0.6000000000000001 0.30000000000000004
[...]
POINT_DATA 1331
VECTORS Disp float
0.0 0.0 0.0
0.0 0.0 0.0
0.0 0.0 0.0
0.0 0.0 0.0
0.0 0.0 0.0
0.0 0.0 0.0
0.0 0.0 0.0
0.0 0.0 0.0
0.0 0.0 0.0
0.0 0.0 0.0
0.0 0.0 0.0
0.05822200706245162 0.015268450219707633 0.05899370216763705
0.04749332753466097 0.007022092195421094 0.02793771919331851
0.04466248641562147 0.003966374197413382 0.019012284724043062
0.04533608696744478 0.0025549515131456065 0.014968936748496614
0.04754952146049803 0.0019444847668804853 0.012790046144424444
0.04993102023715852 0.001675932748101434 0.01122432577673902
0.05182890823990039 0.0014883818736507227 0.010053801594282196
0.053247073301431795 0.001270189514957296 0.00924577597853618
0.054299757429786814 0.0007724767982836768 0.007909453747142607
0.05539508496417871 0.001434600540616859 0.0026442340066503344
0.047934624602845484 -0.004049903709049611 -0.04041828723426981
0.12615935196501737 0.04362605292685836 0.0769136227339394
0.1084851660013713 0.018941287408612763 0.04674756352652245
0.10404501998639572 0.009907234400010958 0.03029656152837424
0.10516582138330201 0.005801276801701003 0.023633075104403184
0.10830443741438368 0.004135656624951325 0.020030659152543775
0.1115463574175326 0.003437899060062645 0.01785646093940195
0.11409331422911778 0.0030234219287319083 0.016453917447502794
0.11581241342076248 0.0024414317799305025 0.01524441317748274
0.11682381247766735 0.0012465563038718196 0.012899696550636766
0.11724755736430738 0.0002761529364180013 7.547875645012316e-05
0.10137321677898574 -0.017600440732219145 -0.03993098394226259
0.19802604951789735 0.06615636625643471 0.07176711375395141
0.1768474329065724 0.02859814923571971 0.05046934468770581
0.1721028443402104 0.013647632455811276 0.035353451789405806
0.1739791328057996 0.00742206044337951 0.028079875675843684
0.17807085668551356 0.004881401082941265 0.024412965898111365
0.182511334559781 0.0038066767790574 0.022496144136985106
0.1866362914035924 0.003113297000329164 0.021498566422004626
0.19031321218287867 0.001980592085434032 0.020665154059074382
0.19364584118550185 -0.00038194958158876263 0.017788728898155474
0.19513547836020287 -0.006345292255662766 0.006914677211625329
0.1750092822079323 -0.03620277425718313 -0.020585295029192156
0.27659519516996717 0.0738459559973086 0.05496585480823295
0.25385393455381855 0.03079226898335218 0.043546952587296565
0.250340576912958 0.013526796625335165 0.03451797374983135
0.2533518362524879 0.006591109766255787 0.029178696270213137
0.2583283030468517 0.0037568343187638848 0.026409757166054877
0.2637128300872098 0.002465096226059022 0.025134658968978874
0.2690168978708098 0.0014263385061227538 0.024753119908031345
0.2740905931658108 -0.00044288384117159384 0.024659439170232823
0.2786526137913597 -0.004744396625660547 0.023472632823832745
0.27948391109685206 -0.01629251155101094 0.018423208234928677
0.25744524684076764 -0.054931052330630205 0.006053596778278301
0.3588769650396813 0.06867293607508913 0.031893221799131885
0.33611062340871356 0.025638044159023078 0.03129012241184815
0.33488160499556174 0.009956494388338148 0.02949709520275375
0.33898851599769464 0.003813393615932366 0.027474938930743233
0.344351451186161 0.0012757226677667065 0.026215130153738594
0.34999999999999837 7.520376058269929e-17 0.02579267023029327
0.3556485488138358 -0.0012757226677663593 0.02621513015373874
0.3610114840023022 -0.003813393615931952 0.027474938930743455
0.36511839500443544 -0.009956494388337574 0.029497095202753856
0.36388937659128384 -0.025638044159022464 0.0312901224118481
0.34112303496031604 -0.06867293607508858 0.03189322179913155
0.44255475315923026 0.05493105233063059 0.006053596778278689
0.42051608890314585 0.01629251155101135 0.0184232082349286
0.4213473862086382 0.0047443966256610105 0.023472632823832707
0.4259094068341872 0.0004428838411720471 0.02465943917023272
0.43098310212918817 -0.0014263385061225183 0.02475311990803125
0.43628716991278804 -0.002465096226058867 0.025134658968978856
0.44167169695314634 -0.0037568343187635335 0.026409757166054832
0.44664816374751015 -0.006591109766255401 0.029178696270213005
0.4496594230870399 -0.013526796625334818 0.03451797374983126
0.4461460654461796 -0.030792268983351672 0.04354695258729657
0.4234048048300306 -0.07384595599730834 0.05496585480823268
0.5249907177920659 0.03620277425718334 -0.020585295029192166
0.5048645216397953 0.00634529225566299 0.0069146772116251394
0.5063541588144966 0.00038194958158919913 0.01778872889815538
0.5096867878171197 -0.001980592085433812 0.020665154059074126
0.5133637085964061 -0.0031132970003289622 0.021498566422004484
0.5174886654402175 -0.0038066767790572676 0.022496144136985086
0.5219291433144853 -0.004881401082941034 0.02441296589811137
0.5260208671941994 -0.0074220604433792615 0.02807987567584356
0.5278971556597885 -0.013647632455811125 0.035353451789405806
0.5231525670934267 -0.028598149235719437 0.05046934468770597
0.5019739504821015 -0.06615636625643477 0.07176711375395174
0.5986267832210128 0.017600440732219082 -0.039930983942262965
0.5827524426356911 -0.00027615293641800753 7.54787564498688e-05
0.5831761875223315 -0.00124655630387143 0.012899696550636604
0.5841875865792363 -0.0024414317799304713 0.015244413177482532
0.585906685770881 -0.0030234219287318064 0.0164539174475028
0.5884536425824665 -0.003437899060062498 0.017856460939401943
0.5916955625856154 -0.004135656624951249 0.02003065915254378
0.5948341786166973 -0.005801276801700899 0.02363307510440318
0.5959549800136037 -0.00990723440001098 0.030296561528374347
0.5915148339986284 -0.0189412874086126 0.046747563526522866
0.5738406480349821 -0.04362605292685855 0.07691362273394026
0.6520653753971531 0.004049903709049406 -0.04041828723427054
0.6446049150358198 -0.001434600540616898 0.0026442340066501384
0.645700242570212 -0.0007724767982835525 0.007909453747142347
0.646752926698567 -0.0012701895149573612 0.009245775978536139
0.6481710917600986 -0.0014883818736507203 0.010053801594282206
0.6500689797628407 -0.0016759327481014022 0.011224325776739022
0.6524504785395014 -0.0019444847668804775 0.012790046144424357
0.6546639130325548 -0.0025549515131456026 0.01496893674849656
0.6553375135843782 -0.003966374197413417 0.019012284724043232
0.6525066724653388 -0.00702209219542104 0.027937719193318857
0.6417779929375483 -0.015268450219707637 0.0589937021676378
0.7000000000000001 0.0 0.0
0.7000000000000001 0.0 0.0
0.7000000000000001 0.0 0.0
0.7000000000000001 0.0 0.0
0.7000000000000001 0.0 0.0
0.7000000000000001 0.0 0.0
0.7000000000000001 0.0 0.0
0.7000000000000001 0.0 0.0
0.7000000000000001 0.0 0.0
0.7000000000000001 0.0 0.0
0.7000000000000001 0.0 0.0
0.0 0.0 0.0
0.0 0.0 0.0
0.0 0.0 0.0
0.0 0.0 0.0
0.0 0.0 0.0
0.0 0.0 0.0
0.0 0.0 0.0
0.0 0.0 0.0
0.0 0.0 0.0
0.0 0.0 0.0
0.0 0.0 0.0
0.06630256963631272 0.012257210394288164 0.04149442473338376
0.05731478530641156 0.00443301209208148 0.020035839052817805
0.05460540195318529 0.0022678252432750227 0.013488251081846309
0.05421666690578045 0.0012057893300447156 0.01026637997406692
0.05514674519692747 0.0007711182949126036 0.0085851535754452
0.05657434646972821 0.0005423261916862842 0.007610609228802209
0.05815998715852838 0.00032685696051295323 0.007034608165542457
0.059963786374011306 -5.622287815679567e-06 0.006670363604485723
0.06216575832378212 -0.0007919462256281919 0.0059511821725472995
0.0650998987522891 -0.001788437034005562 0.001367676632701526
0.06272123894378054 -0.009895875306257549 -0.0303751623374947
0.13782830282212719 0.03885765228867476 0.05542759470364345
0.12033549683519247 0.015798786800602177 0.03473576705735075
0.11453183386254392 0.007936129175141002 0.02246901979596184
0.11352663410715487 0.004386904432959891 0.01749455312636474
0.11479006516998129 0.00273454672026065 0.014929152233429666
0.11702782584235108 0.001771224048885008 0.01363280463639882
0.11967071061215291 0.0008733671608261971 0.012953892073577345
0.12263329869692872 -0.000486558106659966 0.012309816771356296
0.12597717340484582 -0.0030016019519724653 0.010395496557700471
0.1288340106612355 -0.0076326000557536185 -0.00028041280897033046
0.11952406537946955 -0.028274712475341936 -0.03025725170452252
0.21090082174423033 0.06362023021994596 0.05306282926844548
0.18863006037416383 0.02800245267991559 0.03828044217459114
0.18134398155943868 0.013545053785107362 0.02722113724662043
0.18080035083299217 0.007288988689113411 0.02173811446889745
0.18312930345406575 0.004192607862748174 0.019166210211791244
0.18671872407800313 0.0023162169493127246 0.017995777298715553
0.19080902711294018 0.0005563946580167426 0.01745687001221142
0.19504096970988988 -0.0020887580797194164 0.016763641566157055
0.19913863935325246 -0.006788344785271582 0.013921448769756548
0.20094477964761237 -0.016834614375324918 0.005240613053051184
0.186099333804432 -0.04878922455577756 -0.016024818796077263
0.2875671512796065 0.0764546691537057 0.041500007388368836
0.2635595179696798 0.034405606132110245 0.03367814922469341
0.2568847116541022 0.01617110033744275 0.027100283169550474
0.2576619652928966 0.008202404784599607 0.023272680733162465
0.26124099197131834 0.0041468743487432045 0.02141652669594015
0.2659671950434294 0.0015914208192833715 0.02065469715126938
0.27103886214710093 -0.0008752698854468334 0.02041447688136767
0.27586134572297005 -0.004571522090170285 0.020051062463514784
0.2795318240301306 -0.011393534969926112 0.01852477136839654
0.2784592031083612 -0.0265322394853591 0.014454739095482762
0.25877343409385906 -0.06648460556165468 0.00432246681207738
0.3654214510638387 0.07654330539471722 0.024109175838269225
0.34237601874234846 0.03327096017179387 0.024496779652576316
0.33800990924165414 0.015100154055143202 0.02336642905039863
0.34031755562810867 0.006999099420604115 0.022289768325182438
0.3447952435892995 0.0027698923278877356 0.02164879050729714
0.3499999999999984 1.6221375732708646e-16 0.02142689463963371
0.35520475641069743 -0.002769892327887306 0.02164879050729719
0.3596824443718885 -0.006999099420603521 0.022289768325182556
0.361990090758343 -0.015100154055142711 0.023366429050398638
0.357623981257649 -0.03327096017179328 0.024496779652576194
0.3345785489361586 -0.07654330539471689 0.024109175838268843
0.44122656590613885 0.06648460556165496 0.004322466812077758
0.42154079689163676 0.02653223948535965 0.014454739095482803
0.4204681759698672 0.011393534969926587 0.01852477136839649
0.42413865427702785 0.0045715220901706875 0.020051062463514707
0.4289611378528969 0.0008752698854471559 0.02041447688136761
0.43403280495656854 -0.0015914208192830844 0.020654697151269347
0.4387590080286797 -0.004146874348742809 0.021416526695940172
0.4423380347071014 -0.008202404784599068 0.023272680733162434
0.4431152883458958 -0.016171100337442325 0.027100283169550467
0.4364404820303182 -0.034405606132109946 0.03367814922469334
0.4124328487203913 -0.07645466915370568 0.04150000738836861
0.5139006661955663 0.048789224555777735 -0.016024818796077214
0.4990552203523861 0.016834614375325265 0.005240613053051122
0.5008613606467461 0.006788344785272023 0.013921448769756456
0.5049590302901086 0.0020887580797196944 0.016763641566156878
0.5091909728870582 -0.0005563946580166342 0.017456870012211325
0.5132812759219955 -0.0023162169493124345 0.01799577729871547
0.516870696545933 -0.004192607862747758 0.019166210211791185
0.5191996491670067 -0.007288988689113033 0.021738114468897337
0.5186560184405602 -0.013545053785107121 0.027221137246620435
0.511369939625835 -0.02800245267991551 0.03828044217459121
0.4890991782557682 -0.06362023021994624 0.05306282926844569
0.5804759346205288 0.028274712475342096 -0.030257251704522852
0.571165989338763 0.007632600055753787 -0.00028041280897058633
0.5740228265951528 0.0030016019519728456 0.010395496557700314
0.5773667013030699 0.00048655810666013743 0.012309816771356182
0.5803292893878458 -0.0008733671608261459 0.012953892073577339
0.5829721741576478 -0.0017712240488848654 0.013632804636398769
0.5852099348300179 -0.002734546720260302 0.01492915223342961
0.5864733658928445 -0.004386904432959676 0.017494553126364682
0.5854681661374554 -0.007936129175140944 0.022469019795961855
0.579664503164807 -0.015798786800602208 0.034735767057351076
0.562171697177872 -0.038857652288675035 0.055427594703644084
0.6372787610562183 0.009895875306257563 -0.030375162337495216
0.6349001012477097 0.0017884370340056095 0.00136767663270137
0.6378342416762167 0.0007919462256283441 0.005951182172547232
0.6400362136259875 5.6222878157136895e-06 0.006670363604485665
0.6418400128414705 -0.00032685696051293545 0.007034608165542392
0.6434256535302709 -0.0005423261916862615 0.007610609228802181
0.6448532548030719 -0.0007711182949124887 0.008585153575445138
0.6457833330942191 -0.0012057893300446475 0.010266379974066923
0.6453945980468142 -0.0022678252432750054 0.013488251081846417
0.642685214693588 -0.004433012092081491 0.020035839052818066
0.6336974303636869 -0.012257210394288225 0.04149442473338427
0.7000000000000001 0.0 0.0
0.7000000000000001 0.0 0.0
0.7000000000000001 0.0 0.0
0.7000000000000001 0.0 0.0
0.7000000000000001 0.0 0.0
0.7000000000000001 0.0 0.0
0.7000000000000001 0.0 0.0
0.7000000000000001 0.0 0.0
0.7000000000000001 0.0 0.0
0.7000000000000001 0.0 0.0
0.7000000000000001 0.0 0.0
0.0 0.0 0.0
0.0 0.0 0.0
0.0 0.0 0.0
0.0 0.0 0.0
0.0 0.0 0.0
0.0 0.0 0.0
0.0 0.0 0.0
0.0 0.0 0.0
0.0 0.0 0.0
0.0 0.0 0.0
0.0 0.0 0.0
0.07307514088788296 0.012425906962851159 0.027779351786378994
0.06276992479037796 0.004329335335826698 0.014336254278955012
0.059670492655664806 0.0023908102381715356 0.009914879180264045
0.05871061257598725 0.001233893014103631 0.007404423491276416
0.05910411049138108 0.0007347223341552315 0.006041639717891825
0.060127015097800336 0.0004197645532744114 0.005340263856014328
0.061560851669529244 0.00010880076663404036 0.005006330064388768
0.06350304555709722 -0.0003936994913771443 0.004839291542690114
0.06631995934618994 -0.0013588881775208244 0.004398929833224103
0.0702939576029999 -0.002932597553799687 0.0012585606424321172
0.07150885289732485 -0.01051288614236612 -0.019628287427634186
0.14457865691738178 0.03772126613727404 0.037868192500954044
0.12713239840293414 0.015826882998001685 0.02488123243700992
0.1207229264555294 0.007875501323836418 0.01634348555923645
0.11897590791561354 0.004155997432315857 0.0126344917953938
0.11961843091498435 0.002334212035916809 0.0107304216499251
0.12148489375400565 0.0012019780091442622 0.009857520915167702
0.12408846737782114 9.921226172027495e-05 0.009471918018762418
0.12729475972045246 -0.0015914258100210923 0.009074446524856068
0.13118033314226316 -0.004509188053518668 0.007607442915638193
0.13489691633650078 -0.010509166423426919 7.073601230924787e-05
0.1314977105938901 -0.029674778037109596 -0.019477746016759657
0.21607922144765013 0.060962963481730845 0.03712134124289376
0.19510953107602166 0.028232241090465425 0.027448896670762286
0.1871082481753058 0.013694367934308945 0.0199268085092309
0.18561190458417315 0.0071316464400533715 0.01588223987271052
0.18717809552224038 0.003793677628644015 0.014052853210383388
0.19026921055279392 0.0016533247251270223 0.013285016329647983
0.19415089568069388 -0.0004260619806565616 0.012942425467694325
0.19834494879256745 -0.0034666997528498707 0.012325754773073582
0.20237801246757445 -0.008743927048089555 0.009928375944729756
0.20404256115745267 -0.020286911507415923 0.0039631530525258305
0.1948722956711761 -0.049562054991839286 -0.009739844443220957
0.2903297776668146 0.07367639087251676 0.029674009196492955
0.26874267310672434 0.03532226331360622 0.02438425015205308
0.2611079064719535 0.0169488481801207 0.01979528823741094
0.26076606981180245 0.008514272511423485 0.017116105181805827
0.26357624402437596 0.004102803951592752 0.015898418040694494
0.2677927176956598 0.0011801253330327524 0.015437876186567775
0.27250337221868054 -0.001695772722290558 0.01523639979281115
0.27695228534274413 -0.005853152715960717 0.014732143383373817
0.28001178457147047 -0.01333960476680631 0.013324304391025693
0.2781973778176665 -0.02955809753251643 0.010647024574026878
0.2632389155018744 -0.06588341972617294 0.004052468582025677
0.36486670412937483 0.07471725527136762 0.017702828510986444
0.34537116387497274 0.03535144255011403 0.017943746125202782
0.3399946965178686 0.016605264465134068 0.017001011857422817
0.34132568102437083 0.007889254864684959 0.016439648238858552
0.345199972875731 0.0031951645725523765 0.016194051147713388
0.34999999999999876 1.7037835961806066e-16 0.01611156195187642
0.35480002712426645 -0.0031951645725520287 0.016194051147713343
0.3586743189756269 -0.0078892548646844 0.01643964823885858
0.3600053034821292 -0.01660526446513358 0.01700101185742274
0.3546288361250252 -0.035351442550113674 0.017943746125202643
0.33513329587062307 -0.07471725527136751 0.017702828510986066
0.43676108449812345 0.06588341972617329 0.004052468582025979
0.42180262218233144 0.029558097532517036 0.010647024574026966
0.41998821542852727 0.013339604766806816 0.013324304391025662
0.4230477146572536 0.005853152715961277 0.014732143383373773
0.427496627781317 0.0016957727222908616 0.015236399792811106
0.43220728230433775 -0.0011801253330324688 0.015437876186567742
0.4364237559756218 -0.00410280395159239 0.015898418040694536
0.43923393018819545 -0.008514272511422984 0.017116105181805844
0.43889209352804437 -0.01694884818012028 0.019795288237410925
0.43125732689327356 -0.03532226331360596 0.024384250152052946
0.4096702223331833 -0.07367639087251675 0.029674009196492684
0.5051277043288223 0.04956205499183956 -0.009739844443220935
0.49595743884254584 0.020286911507416395 0.00396315305252584
0.49762198753242404 0.008743927048089956 0.009928375944729716
0.501655051207431 0.003466699752850335 0.012325754773073504
0.5058491043193045 0.0004260619806567574 0.012942425467694297
0.5097307894472044 -0.0016533247251268525 0.013285016329647886
0.5128219044777581 -0.0037936776286437335 0.014052853210383283
0.5143880954158254 -0.007131646440053006 0.0158822398727104
0.5128917518246929 -0.013694367934308681 0.019926808509230856
0.5048904689239769 -0.02823224109046545 0.02744889667076228
0.48392077855234833 -0.06096296348173102 0.03712134124289392
0.5685022894061084 0.029674778037109786 -0.019477746016759855
0.5651030836634978 0.01050916642342724 7.073601230904859e-05
0.5688196668577354 0.0045091880535189565 0.007607442915638096
0.5727052402795463 0.0015914258100214215 0.009074446524855999
0.5759115326221775 -9.921226172017937e-05 0.00947191801876238
0.5785151062459931 -0.0012019780091441275 0.009857520915167556
0.5803815690850145 -0.002334212035916676 0.010730421649925019
0.5810240920843855 -0.004155997432315606 0.01263449179539369
0.5792770735444697 -0.00787550132383628 0.01634348555923645
0.5728676015970648 -0.015826882998001793 0.02488123243701009
0.5554213430826171 -0.037721266137274216 0.03786819250095441
0.6284911471026733 0.010512886142366156 -0.01962828742763464
0.6297060423969985 0.0029325975537999004 0.0012585606424319658
0.6336800406538086 0.0013588881775209404 0.004398929833224076
0.6364969544429014 0.0003936994913772803 0.004839291542690164
0.6384391483304696 -0.00010880076663399751 0.005006330064388676
0.6398729849021986 -0.00041976455327434495 0.0053402638560142495
0.6408958895086179 -0.0007347223341552168 0.006041639717891751
0.6412893874240118 -0.0012338930141035471 0.0074044234912764425
0.6403295073443344 -0.002390810238171495 0.009914879180264095
0.6372300752096213 -0.004329335335826699 0.014336254278955202
0.6269248591121162 -0.012425906962851178 0.027779351786379237
0.7000000000000001 0.0 0.0
0.7000000000000001 0.0 0.0
0.7000000000000001 0.0 0.0
0.7000000000000001 0.0 0.0
0.7000000000000001 0.0 0.0
0.7000000000000001 0.0 0.0
0.7000000000000001 0.0 0.0
0.7000000000000001 0.0 0.0
0.7000000000000001 0.0 0.0
0.7000000000000001 0.0 0.0
0.7000000000000001 0.0 0.0
0.0 0.0 0.0
0.0 0.0 0.0
0.0 0.0 0.0
0.0 0.0 0.0
0.0 0.0 0.0
0.0 0.0 0.0
0.0 0.0 0.0
0.0 0.0 0.0
0.0 0.0 0.0
0.0 0.0 0.0
0.0 0.0 0.0
0.07660259413176224 0.01219409912324721 0.016730120586341417
0.06532524504558482 0.004030173576615421 0.009269597248597135
0.06228879066636945 0.002334593330936298 0.006638636983301235