# vtk DataFile Version 3.0
Some data
ASCII
DATASET UNSTRUCTURED_GRID
POINTS 1331 float
0.0 0.0 0.0
0.1 0.0 0.0
0.2 0.0 0.0
0.30000000000000004 0.0 0.0
0.4 0.0 0.0
0.5 0.0 0.0
0.6000000000000001 0.0 0.0
0.7000000000000001 0.0 0.0
0.8 0.0 0.0
0.9 0.0 0.0
1.0 0.0 0.0
0.0 0.1 0.0
0.1 0.1 0.0
0.2 0.1 0.0
0.30000000000000004 0.1 0.0
0.4 0.1 0.0
0.5 0.1 0.0
0.6000000000000001 0.1 0.0
0.7000000000000001 0.1 0.0
0.8 0.1 0.0
0.9 0.1 0.0
1.0 0.1 0.0
0.0 0.2 0.0
0.1 0.2 0.0
0.2 0.2 0.0
0.30000000000000004 0.2 0.0
0.4 0.2 0.0
0.5 0.2 0.0
0.6000000000000001 0.2 0.0
0.7000000000000001 0.2 0.0
0.8 0.2 0.0
0.9 0.2 0.0
1.0 0.2 0.0
0.0 0.30000000000000004 0.0
0.1 0.30000000000000004 0.0
0.2 0.30000000000000004 0.0
0.30000000000000004 0.30000000000000004 0.0
0.4 0.30000000000000004 0.0
0.5 0.30000000000000004 0.0
0.6000000000000001 0.30000000000000004 0.0
0.7000000000000001 0.30000000000000004 0.0
0.8 0.30000000000000004 0.0
0.9 0.30000000000000004 0.0
1.0 0.30000000000000004 0.0
0.0 0.4 0.0
0.1 0.4 0.0
0.2 0.4 0.0
0.30000000000000004 0.4 0.0
0.4 0.4 0.0
0.5 0.4 0.0
0.6000000000000001 0.4 0.0
0.7000000000000001 0.4 0.0
0.8 0.4 0.0
0.9 0.4 0.0
1.0 0.4 0.0
0.0 0.5 0.0
0.1 0.5 0.0
0.2 0.5 0.0
0.30000000000000004 0.5 0.0
0.4 0.5 0.0
0.5 0.5 0.0
0.6000000000000001 0.5 0.0
0.7000000000000001 0.5 0.0
0.8 0.5 0.0
0.9 0.5 0.0
1.0 0.5 0.0
0.0 0.6000000000000001 0.0
0.1 0.6000000000000001 0.0
0.2 0.6000000000000001 0.0
0.30000000000000004 0.6000000000000001 0.0
0.4 0.6000000000000001 0.0
0.5 0.6000000000000001 0.0
0.6000000000000001 0.6000000000000001 0.0
0.7000000000000001 0.6000000000000001 0.0
0.8 0.6000000000000001 0.0
0.9 0.6000000000000001 0.0
1.0 0.6000000000000001 0.0
0.0 0.7000000000000001 0.0
0.1 0.7000000000000001 0.0
0.2 0.7000000000000001 0.0
0.30000000000000004 0.7000000000000001 0.0
0.4 0.7000000000000001 0.0
0.5 0.7000000000000001 0.0
0.6000000000000001 0.7000000000000001 0.0
0.7000000000000001 0.7000000000000001 0.0
0.8 0.7000000000000001 0.0
0.9 0.7000000000000001 0.0
1.0 0.7000000000000001 0.0
0.0 0.8 0.0
0.1 0.8 0.0
0.2 0.8 0.0
0.30000000000000004 0.8 0.0
0.4 0.8 0.0
0.5 0.8 0.0
0.6000000000000001 0.8 0.0
0.7000000000000001 0.8 0.0
0.8 0.8 0.0
0.9 0.8 0.0
1.0 0.8 0.0
0.0 0.9 0.0
0.1 0.9 0.0
0.2 0.9 0.0
0.30000000000000004 0.9 0.0
0.4 0.9 0.0
0.5 0.9 0.0
0.6000000000000001 0.9 0.0
0.7000000000000001 0.9 0.0
0.8 0.9 0.0
0.9 0.9 0.0
1.0 0.9 0.0
0.0 1.0 0.0
0.1 1.0 0.0
0.2 1.0 0.0
0.30000000000000004 1.0 0.0
0.4 1.0 0.0
0.5 1.0 0.0
0.6000000000000001 1.0 0.0
0.7000000000000001 1.0 0.0
0.8 1.0 0.0
0.9 1.0 0.0
1.0 1.0 0.0
0.0 0.0 0.1
0.1 0.0 0.1
0.2 0.0 0.1
0.30000000000000004 0.0 0.1
0.4 0.0 0.1
0.5 0.0 0.1
0.6000000000000001 0.0 0.1
0.7000000000000001 0.0 0.1
0.8 0.0 0.1
0.9 0.0 0.1
1.0 0.0 0.1
0.0 0.1 0.1
0.1 0.1 0.1
0.2 0.1 0.1
0.30000000000000004 0.1 0.1
0.4 0.1 0.1
0.5 0.1 0.1
0.6000000000000001 0.1 0.1
0.7000000000000001 0.1 0.1
0.8 0.1 0.1
0.9 0.1 0.1
1.0 0.1 0.1
0.0 0.2 0.1
0.1 0.2 0.1
0.2 0.2 0.1
0.30000000000000004 0.2 0.1
0.4 0.2 0.1
0.5 0.2 0.1
0.6000000000000001 0.2 0.1
0.7000000000000001 0.2 0.1
0.8 0.2 0.1
0.9 0.2 0.1
1.0 0.2 0.1
0.0 0.30000000000000004 0.1
0.1 0.30000000000000004 0.1
0.2 0.30000000000000004 0.1
0.30000000000000004 0.30000000000000004 0.1
0.4 0.30000000000000004 0.1
0.5 0.30000000000000004 0.1
0.6000000000000001 0.30000000000000004 0.1
0.7000000000000001 0.30000000000000004 0.1
0.8 0.30000000000000004 0.1
0.9 0.30000000000000004 0.1
1.0 0.30000000000000004 0.1
0.0 0.4 0.1
0.1 0.4 0.1
0.2 0.4 0.1
0.30000000000000004 0.4 0.1
0.4 0.4 0.1
0.5 0.4 0.1
0.6000000000000001 0.4 0.1
0.7000000000000001 0.4 0.1
0.8 0.4 0.1
0.9 0.4 0.1
1.0 0.4 0.1
0.0 0.5 0.1
0.1 0.5 0.1
0.2 0.5 0.1
0.30000000000000004 0.5 0.1
0.4 0.5 0.1
0.5 0.5 0.1
0.6000000000000001 0.5 0.1
0.7000000000000001 0.5 0.1
0.8 0.5 0.1
0.9 0.5 0.1
1.0 0.5 0.1
0.0 0.6000000000000001 0.1
0.1 0.6000000000000001 0.1
0.2 0.6000000000000001 0.1
0.30000000000000004 0.6000000000000001 0.1
0.4 0.6000000000000001 0.1
0.5 0.6000000000000001 0.1
0.6000000000000001 0.6000000000000001 0.1
0.7000000000000001 0.6000000000000001 0.1
0.8 0.6000000000000001 0.1
0.9 0.6000000000000001 0.1
1.0 0.6000000000000001 0.1
0.0 0.7000000000000001 0.1
0.1 0.7000000000000001 0.1
0.2 0.7000000000000001 0.1
0.30000000000000004 0.7000000000000001 0.1
0.4 0.7000000000000001 0.1
0.5 0.7000000000000001 0.1
0.6000000000000001 0.7000000000000001 0.1
0.7000000000000001 0.7000000000000001 0.1
0.8 0.7000000000000001 0.1
0.9 0.7000000000000001 0.1
1.0 0.7000000000000001 0.1
0.0 0.8 0.1
0.1 0.8 0.1
0.2 0.8 0.1
0.30000000000000004 0.8 0.1
0.4 0.8 0.1
0.5 0.8 0.1
0.6000000000000001 0.8 0.1
0.7000000000000001 0.8 0.1
0.8 0.8 0.1
0.9 0.8 0.1
1.0 0.8 0.1
0.0 0.9 0.1
0.1 0.9 0.1
0.2 0.9 0.1
0.30000000000000004 0.9 0.1
0.4 0.9 0.1
0.5 0.9 0.1
0.6000000000000001 0.9 0.1
0.7000000000000001 0.9 0.1
0.8 0.9 0.1
0.9 0.9 0.1
1.0 0.9 0.1
0.0 1.0 0.1
0.1 1.0 0.1
0.2 1.0 0.1
0.30000000000000004 1.0 0.1
0.4 1.0 0.1
0.5 1.0 0.1
0.6000000000000001 1.0 0.1
0.7000000000000001 1.0 0.1
0.8 1.0 0.1
0.9 1.0 0.1
1.0 1.0 0.1
0.0 0.0 0.2
0.1 0.0 0.2
0.2 0.0 0.2
0.30000000000000004 0.0 0.2
0.4 0.0 0.2
0.5 0.0 0.2
0.6000000000000001 0.0 0.2
0.7000000000000001 0.0 0.2
0.8 0.0 0.2
0.9 0.0 0.2
1.0 0.0 0.2
0.0 0.1 0.2
0.1 0.1 0.2
0.2 0.1 0.2
0.30000000000000004 0.1 0.2
0.4 0.1 0.2
0.5 0.1 0.2
0.6000000000000001 0.1 0.2
0.7000000000000001 0.1 0.2
0.8 0.1 0.2
0.9 0.1 0.2
1.0 0.1 0.2
0.0 0.2 0.2
0.1 0.2 0.2
0.2 0.2 0.2
0.30000000000000004 0.2 0.2
0.4 0.2 0.2
0.5 0.2 0.2
0.6000000000000001 0.2 0.2
0.7000000000000001 0.2 0.2
0.8 0.2 0.2
0.9 0.2 0.2
1.0 0.2 0.2
0.0 0.30000000000000004 0.2
0.1 0.30000000000000004 0.2
0.2 0.30000000000000004 0.2
0.30000000000000004 0.30000000000000004 0.2
0.4 0.30000000000000004 0.2
0.5 0.30000000000000004 0.2
0.6000000000000001 0.30000000000000004 0.2
0.7000000000000001 0.30000000000000004 0.2
0.8 0.30000000000000004 0.2
0.9 0.30000000000000004 0.2
1.0 0.30000000000000004 0.2
0.0 0.4 0.2
0.1 0.4 0.2
0.2 0.4 0.2
0.30000000000000004 0.4 0.2
0.4 0.4 0.2
0.5 0.4 0.2
0.6000000000000001 0.4 0.2
0.7000000000000001 0.4 0.2
0.8 0.4 0.2
0.9 0.4 0.2
1.0 0.4 0.2
0.0 0.5 0.2
0.1 0.5 0.2
0.2 0.5 0.2
0.30000000000000004 0.5 0.2
0.4 0.5 0.2
0.5 0.5 0.2
0.6000000000000001 0.5 0.2
0.7000000000000001 0.5 0.2
0.8 0.5 0.2
0.9 0.5 0.2
1.0 0.5 0.2
0.0 0.6000000000000001 0.2
0.1 0.6000000000000001 0.2
0.2 0.6000000000000001 0.2
0.30000000000000004 0.6000000000000001 0.2
0.4 0.6000000000000001 0.2
0.5 0.6000000000000001 0.2
0.6000000000000001 0.6000000000000001 0.2
0.7000000000000001 0.6000000000000001 0.2
0.8 0.6000000000000001 0.2
0.9 0.6000000000000001 0.2
1.0 0.6000000000000001 0.2
0.0 0.7000000000000001 0.2
0.1 0.7000000000000001 0.2
0.2 0.7000000000000001 0.2
0.30000000000000004 0.7000000000000001 0.2
0.4 0.7000000000000001 0.2
0.5 0.7000000000000001 0.2
0.6000000000000001 0.7000000000000001 0.2
0.7000000000000001 0.7000000000000001 0.2
0.8 0.7000000000000001 0.2
0.9 0.7000000000000001 0.2
1.0 0.7000000000000001 0.2
0.0 0.8 0.2
0.1 0.8 0.2
0.2 0.8 0.2
0.30000000000000004 0.8 0.2
0.4 0.8 0.2
0.5 0.8 0.2
0.6000000000000001 0.8 0.2
0.7000000000000001 0.8 0.2
0.8 0.8 0.2
0.9 0.8 0.2
1.0 0.8 0.2
0.0 0.9 0.2
0.1 0.9 0.2
0.2 0.9 0.2
0.30000000000000004 0.9 0.2
0.4 0.9 0.2
0.5 0.9 0.2
0.6000000000000001 0.9 0.2
0.7000000000000001 0.9 0.2
0.8 0.9 0.2
0.9 0.9 0.2
1.0 0.9 0.2
0.0 1.0 0.2
0.1 1.0 0.2
0.2 1.0 0.2
0.30000000000000004 1.0 0.2
0.4 1.0 0.2
0.5 1.0 0.2
0.6000000000000001 1.0 0.2
0.7000000000000001 1.0 0.2
0.8 1.0 0.2
0.9 1.0 0.2
1.0 1.0 0.2
0.0 0.0 0.30000000000000004
0.1 0.0 0.30000000000000004
0.2 0.0 0.30000000000000004
0.30000000000000004 0.0 0.30000000000000004
0.4 0.0 0.30000000000000004
0.5 0.0 0.30000000000000004
0.6000000000000001 0.0 0.30000000000000004
0.7000000000000001 0.0 0.30000000000000004
0.8 0.0 0.30000000000000004
0.9 0.0 0.30000000000000004
1.0 0.0 0.30000000000000004
0.0 0.1 0.30000000000000004
0.1 0.1 0.30000000000000004
0.2 0.1 0.30000000000000004
0.30000000000000004 0.1 0.30000000000000004
0.4 0.1 0.30000000000000004
0.5 0.1 0.30000000000000004
0.6000000000000001 0.1 0.30000000000000004
0.7000000000000001 0.1 0.30000000000000004
0.8 0.1 0.30000000000000004
0.9 0.1 0.30000000000000004
1.0 0.1 0.30000000000000004
0.0 0.2 0.30000000000000004
0.1 0.2 0.30000000000000004
0.2 0.2 0.30000000000000004
0.30000000000000004 0.2 0.30000000000000004
0.4 0.2 0.30000000000000004
0.5 0.2 0.30000000000000004
0.6000000000000001 0.2 0.30000000000000004
0.7000000000000001 0.2 0.30000000000000004
0.8 0.2 0.30000000000000004
0.9 0.2 0.30000000000000004
1.0 0.2 0.30000000000000004
0.0 0.30000000000000004 0.30000000000000004
0.1 0.30000000000000004 0.30000000000000004
0.2 0.30000000000000004 0.30000000000000004
0.30000000000000004 0.30000000000000004 0.30000000000000004
0.4 0.30000000000000004 0.30000000000000004
0.5 0.30000000000000004 0.30000000000000004
0.6000000000000001 0.30000000000000004 0.30000000000000004
0.7000000000000001 0.30000000000000004 0.30000000000000004
0.8 0.30000000000000004 0.30000000000000004
0.9 0.30000000000000004 0.30000000000000004
1.0 0.30000000000000004 0.30000000000000004
0.0 0.4 0.30000000000000004
0.1 0.4 0.30000000000000004
0.2 0.4 0.30000000000000004
0.30000000000000004 0.4 0.30000000000000004
0.4 0.4 0.30000000000000004
0.5 0.4 0.30000000000000004
0.6000000000000001 0.4 0.30000000000000004
0.7000000000000001 0.4 0.30000000000000004
0.8 0.4 0.30000000000000004
0.9 0.4 0.30000000000000004
1.0 0.4 0.30000000000000004
0.0 0.5 0.30000000000000004
0.1 0.5 0.30000000000000004
0.2 0.5 0.30000000000000004
0.30000000000000004 0.5 0.30000000000000004
0.4 0.5 0.30000000000000004
0.5 0.5 0.30000000000000004
0.6000000000000001 0.5 0.30000000000000004
0.7000000000000001 0.5 0.30000000000000004
0.8 0.5 0.30000000000000004
0.9 0.5 0.30000000000000004
1.0 0.5 0.30000000000000004
0.0 0.6000000000000001 0.30000000000000004
0.1 0.6000000000000001 0.30000000000000004
0.2 0.6000000000000001 0.30000000000000004
0.30000000000000004 0.6000000000000001 0.30000000000000004
[...]
POINT_DATA 1331
VECTORS Disp float
0.0 0.0 0.0
0.0 0.0 0.0
0.0 0.0 0.0
0.0 0.0 0.0
0.0 0.0 0.0
0.0 0.0 0.0
0.0 0.0 0.0
0.0 0.0 0.0
0.0 0.0 0.0
0.0 0.0 0.0
0.0 0.0 0.0
0.07275470461694718 0.015795814916294313 0.06901563037144944
0.06073871415605155 0.00727495441474638 0.03353464444563145
0.05831957075859802 0.00391694546514305 0.023978277964347178
0.06012562355946365 0.0025596116499596493 0.02028722331238096
0.06389814270805914 0.001984726077652713 0.019175582038533874
0.06837625716030132 0.0017359097638637013 0.019066381353712296
0.07301820728338676 0.0015078636314269792 0.01955318674968514
0.077855289910547 0.0012746331844165559 0.020375049976373773
0.08267795127955228 0.00093645599997351 0.020203549240280668
0.0877812105768411 0.001810084487137289 0.016083706938225893
0.08216161724536637 -0.002818996087064461 -0.028135834111634096
0.1696105383786771 0.045634282382365575 0.09570783821807924
0.1456219581653233 0.019018758115254136 0.05898088777302328
0.14075616863557422 0.009674607885242026 0.04084668083507454
0.14354776205915581 0.005621962772385281 0.034669134077804475
0.14947272930066288 0.004120029897735152 0.03261952575664467
0.1561325003318635 0.003517219929403106 0.032415878846317484
0.16251277415026216 0.003096489277770098 0.033034549926500525
0.16833053607969822 0.0025882888408961598 0.03351871296843788
0.1732927252956331 0.0016896798988140056 0.03207703195501908
0.17743288071642835 0.0017782294312012996 0.01845071663755656
0.1581352456079822 -0.014570142482036327 -0.02810196538885098
0.27182906481632996 0.07121800238189134 0.09510031780122655
0.24031129531555573 0.028940155372337566 0.06974812768502
0.23494083676690006 0.013153111114395055 0.05290883075996733
0.2396939492152552 0.006913217244893223 0.0462424258324143
0.24816766977148305 0.004652385583043014 0.04418695661081145
0.2575940566817482 0.0038194762378802047 0.044197242939158665
0.2670022423615091 0.0033069253668644378 0.04509250628723969
0.27604084242598814 0.0024369940933022735 0.04574272649909258
0.28435372212648324 0.0006111866901185479 0.04331507593087468
0.28911468345805164 -0.004196928977573072 0.029375959392148963
0.2605952097753563 -0.03324618288888323 -0.006727492947462614
0.3837300084648294 0.07869657161792862 0.07844275143970542
0.3480925643148403 0.03081711179833281 0.06766460670928473
0.34455652874317877 0.012501234784491938 0.058658881832657724
0.352008330198266 0.005736028931897721 0.05418976095051787
0.3628461545221395 0.0033395398347267208 0.052678541016377575
0.37456882130595504 0.0024418660815371442 0.0526849785959685
0.3864366037730463 0.0017794839713226437 0.05344581649936136
0.3980623119201529 0.0003671409261504619 0.05412993643153375
0.4085499260135156 -0.0032197862656643222 0.05253863001383151
0.4113612672820322 -0.014374519790528395 0.043985866892474045
0.3769863751114489 -0.05361046613301699 0.023233932002058092
0.5022033870626132 0.07063224860949312 0.053073808662412084
0.4656718888604961 0.024704739894180705 0.057682039647482045
0.46530685386318726 0.008435943382989001 0.058068628996601666
0.47521804117011024 0.002832767626109122 0.05696859626849374
0.4873706380079506 0.0008228375100385471 0.05602707901791373
0.5000000000000016 -1.6238672177157648e-16 0.05568711498626326
0.5126293619920529 -0.0008228375100386507 0.05602707901791379
0.5247819588298934 -0.002832767626109247 0.05696859626849388
0.5346931461368166 -0.008435943382989095 0.05806862899660173
0.5343281111395081 -0.024704739894180698 0.05768203964748203
0.4977966129373909 -0.07063224860949313 0.0530738086624123
0.6230136248885554 0.053610466133016496 0.02323393200205792
0.5886387327179724 0.014374519790528199 0.04398586689247381
0.5914500739864892 0.0032197862656642 0.05253863001383151
0.6019376880798519 -0.00036714092615062186 0.054129936431533396
0.6135633962269583 -0.0017794839713227467 0.053445816499361004
0.6254311786940492 -0.0024418660815374352 0.052684978595968227
0.6371538454778648 -0.0033395398347268175 0.05267854101637732
0.6479916698017381 -0.005736028931897811 0.054189760950517446
0.6554434712568251 -0.01250123478449218 0.05865888183265745
0.651907435685164 -0.030817111798332776 0.06766460670928423
0.6162699915351751 -0.07869657161792831 0.07844275143970492
0.7394047902246479 0.03324618288888257 -0.0067274929474626256
0.710885316541953 0.004196928977572761 0.029375959392148508
0.7156462778735212 -0.0006111866901186871 0.04331507593087418
0.7239591575740162 -0.002436994093302566 0.04574272649909191
0.7329977576384953 -0.0033069253668645128 0.04509250628723929
0.7424059433182562 -0.0038194762378803305 0.04419724293915828
0.7518323302285213 -0.004652385583043159 0.04418695661081105
0.7603060507847492 -0.0069132172448932525 0.04624242583241367
0.7650591632331037 -0.013153111114395408 0.05290883075996668
0.7596887046844482 -0.028940155372337593 0.06974812768501919
0.728170935183674 -0.07121800238189106 0.09510031780122587
0.841864754392021 0.014570142482036004 -0.02810196538885085
0.8225671192835751 -0.0017782294312015078 0.018450716637556014
0.8267072747043701 -0.00168967989881413 0.03207703195501834
0.8316694639203046 -0.002588288840896408 0.03351871296843738
0.8374872258497407 -0.0030964892777701506 0.03303454992650018
0.8438674996681393 -0.0035172199294031185 0.032415878846317074
0.8505272706993398 -0.0041200298977352385 0.032619525756644244
0.8564522379408468 -0.005621962772385294 0.03466913407780395
0.8592438313644283 -0.009674607885242197 0.04084668083507406
0.8543780418346794 -0.0190187581152541 0.058980887773022704
0.830389461621326 -0.04563428238236547 0.0957078382180786
0.9178383827546358 0.002818996087064524 -0.028135834111634124
0.9122187894231607 -0.0018100844871373715 0.016083706938225115
0.9173220487204492 -0.0009364559999735693 0.020203549240279922
0.9221447100894542 -0.0012746331844166018 0.020375049976373426
0.9269817927166143 -0.0015078636314270236 0.01955318674968482
0.9316237428396998 -0.0017359097638637172 0.019066381353712046
0.936101857291942 -0.001984726077652756 0.019175582038533572
0.9398743764405373 -0.002559611649959674 0.020287223312380597
0.9416804292414028 -0.003916945465143115 0.023978277964346952
0.9392612858439495 -0.007274954414746343 0.03353464444563117
0.9272452953830542 -0.0157958149162942 0.06901563037144873
1.0 0.0 0.0
1.0 0.0 0.0
1.0 0.0 0.0
1.0 0.0 0.0
1.0 0.0 0.0
1.0 0.0 0.0
1.0 0.0 0.0
1.0 0.0 0.0
1.0 0.0 0.0
1.0 0.0 0.0
1.0 0.0 0.0
0.0 0.0 0.0
0.0 0.0 0.0
0.0 0.0 0.0
0.0 0.0 0.0
0.0 0.0 0.0
0.0 0.0 0.0
0.0 0.0 0.0
0.0 0.0 0.0
0.0 0.0 0.0
0.0 0.0 0.0
0.0 0.0 0.0
0.08097016619597189 0.012215201361483219 0.04939651258065524
0.07183823014369192 0.004322834354221849 0.02412549525874724
0.07024609164762485 0.0019899053238537395 0.01721662993741904
0.07136604810871232 0.0009666262392083818 0.014264209528904677
0.07410291523811846 0.0005673778625446416 0.013333320779862417
0.077676495083278 0.00036537151176902047 0.01333561764776569
0.08178213479634482 0.00015155253775633136 0.01389350520413153
0.08643601776977268 -0.00016933213469958692 0.014726758924192085
0.09150051825133347 -0.0009191645147965109 0.014952088554954805
0.09720538785152491 -0.0016523207605449318 0.010981842983131504
0.09551107227397168 -0.008581115598573037 -0.023330783753905068
0.1803393145601726 0.03948466716042889 0.07032739535415038
0.15845375918767196 0.014882607512100483 0.04435884349764439
0.15348068010948376 0.007066628135724831 0.03066364606137617
0.1546710105945986 0.0036814165930325314 0.026148708598263338
0.1588383904678859 0.0022323126785266487 0.024765556867411713
0.16441298381183916 0.0013912686581174214 0.024965458704663497
0.1707157012306045 0.0005623589714623164 0.025861013823013146
0.17744303693616753 -0.0006497342275840976 0.026667122394380616
0.18399513940876566 -0.0028508203980563366 0.025684678472353038
0.18903816001867368 -0.0061210639225874955 0.014067481584823412
0.17528312660448586 -0.02472132092073551 -0.021980870540431147
0.2846008277636639 0.06662349038806778 0.07128180576570581
0.2534310312591448 0.02684804470380936 0.05347048546318357
0.24645866631595348 0.012188224020742449 0.04103068831333219
0.2490820553399783 0.006277355368500751 0.03612645859461618
0.25560940232717544 0.0035578714678268287 0.03488270569856936
0.26385602471842706 0.001918623863523951 0.03522850655681676
0.2728624720390904 0.0003368287463501168 0.03614623793719487
0.28199716014790094 -0.0019925452112755826 0.03667383048933765
0.29040995753435866 -0.005933466572692844 0.03422290969816209
0.29466104110427654 -0.014124056944039617 0.022954566273838056
0.2715888358488377 -0.04460243574521702 -0.005946481452574193
0.39583960776291943 0.07969486673669252 0.06034940776667768
0.35970500886763923 0.03305170711798616 0.05295221552305872
0.3531654165504611 0.01451620394605481 0.046334004563224576
0.3582152094687299 0.007107983270244413 0.04324758434425475
0.3672852504272181 0.0035734206818302345 0.04245470504393573
0.37790742268599453 0.0013507687376894731 0.04269928125542879
0.38900925271946407 -0.0008182690630405671 0.043308328731451344
0.39968595047150934 -0.0040396736072376175 0.04351169062203842
0.40850156933035064 -0.009896498535511007 0.04165446983146364
0.4092726980532994 -0.02376416603721228 0.035011230945843456
0.3783820127761898 -0.06399024767223317 0.017872944041670693
0.5096642224233842 0.0773364083566258 0.04137996316670782
0.47391005968281685 0.031244343460949023 0.04579514826602085
0.4703292909700845 0.013352423244574793 0.04616564742229073
0.47773074339618643 0.006069657344892781 0.045830370665236035
0.48835742107949803 0.0024057714012150296 0.04553649400162503
0.5000000000000021 1.5429654445438943e-17 0.045404833276197654
0.511642578920506 -0.002405771401215138 0.04553649400162507
0.5222692566038176 -0.006069657344892713 0.04583037066523615
0.5296707090299191 -0.013352423244574843 0.046165647422290804
0.5260899403171871 -0.031244343460948718 0.04579514826602078
0.49033577757661967 -0.0773364083566257 0.04137996316670777
0.6216179872238143 0.06399024767223285 0.017872944041670738
0.5907273019467052 0.02376416603721232 0.03501123094584325
0.5914984306696539 0.009896498535510884 0.041654469831463495
0.6003140495284951 0.0040396736072374805 0.04351169062203822
0.6109907472805403 0.0008182690630403688 0.04330832873145113
0.6220925773140099 -0.0013507687376894035 0.0426992812554286
0.632714749572786 -0.0035734206818302536 0.042454705043935594
0.6417847905312742 -0.00710798327024423 0.04324758434425447
0.6468345834495428 -0.014516203946054757 0.04633400456322438
0.6402949911323648 -0.03305170711798596 0.05295221552305832
0.6041603922370846 -0.07969486673669224 0.06034940776667726
0.7284111641511665 0.04460243574521647 -0.0059464814525740164
0.7053389588957281 0.014124056944039485 0.022954566273837844
0.7095900424656459 0.005933466572692825 0.03422290969816168
0.7180028398521032 0.0019925452112754113 0.03667383048933715
0.7271375279609136 -0.00033682874635041177 0.03614623793719453
0.7361439752815774 -0.0019186238635239077 0.03522850655681634
0.744390597672829 -0.0035578714678267008 0.03488270569856885
0.7509179446600259 -0.00627735536850078 0.03612645859461569
0.7535413336840507 -0.012188224020742435 0.04103068831333171
0.7465689687408592 -0.026848044703809394 0.05347048546318307
0.7153991722363401 -0.06662349038806775 0.07128180576570543
0.8247168733955171 0.024721320920735253 -0.02198087054043121
0.8109618399813296 0.006121063922587299 0.014067481584822905
0.8160048605912378 0.002850820398056438 0.025684678472352472
0.8225569630638357 0.0006497342275839481 0.026667122394380186
0.8292842987693984 -0.0005623589714625898 0.025861013823012854
0.8355870161881639 -0.0013912686581174795 0.024965458704663095
0.8411616095321173 -0.002232312678526454 0.02476555686741136
0.8453289894054044 -0.0036814165930325786 0.02614870859826292
0.8465193198905191 -0.0070666281357248594 0.03066364606137573
0.8415462408123309 -0.01488260751210057 0.04435884349764395
0.8196606854398304 -0.03948466716042893 0.0703273953541498
0.9044889277260303 0.008581115598572928 -0.023330783753904863
0.902794612148477 0.0016523207605448188 0.010981842983130964
0.9084994817486685 0.0009191645147965917 0.014952088554954262
0.9135639822302289 0.00016933213469951368 0.014726758924191771
0.9182178652036566 -0.00015155253775643704 0.013893505204131174
0.9223235049167232 -0.00036537151176906785 0.013335617647765413
0.9258970847618829 -0.0005673778625445464 0.013333320779862158
0.928633951891289 -0.0009666262392083759 0.014264209528904361
0.9297539083523764 -0.0019899053238537335 0.017216629937418834
0.9281617698563093 -0.004322834354221904 0.02412549525874698
0.9190298338040296 -0.012215201361483172 0.04939651258065461
1.0 0.0 0.0
1.0 0.0 0.0
1.0 0.0 0.0
1.0 0.0 0.0
1.0 0.0 0.0
1.0 0.0 0.0
1.0 0.0 0.0
1.0 0.0 0.0
1.0 0.0 0.0
1.0 0.0 0.0
1.0 0.0 0.0
0.0 0.0 0.0
0.0 0.0 0.0
0.0 0.0 0.0
0.0 0.0 0.0
0.0 0.0 0.0
0.0 0.0 0.0
0.0 0.0 0.0
0.0 0.0 0.0
0.0 0.0 0.0
0.0 0.0 0.0
0.0 0.0 0.0
0.08845917664376778 0.012362116708623454 0.0339436129547114
0.07819956348809842 0.00406496360623168 0.017308280161568355
0.0763860684538129 0.002004141511606074 0.012584663985780493
0.0770117239010325 0.0008738064025580468 0.010239260259000309
0.07925448129217902 0.00041891689734609643 0.009367793994525192
0.08235518016244041 0.00013161447334481636 0.00932022709913798
0.08611457510721685 -0.00016662579709840025 0.009777150669771606
0.09058379548540857 -0.0006162086616114181 0.01052911727043011
0.0958523164796931 -0.0013617756593625049 0.011004975703369477
0.10178194261943646 -0.0023501057143631076 0.008265677828833038
0.1024545611533811 -0.00848866058770948 -0.015433817543210741
0.1874724980576981 0.03809915406157678 0.04916017371427434
0.16662319112438956 0.014642564453119436 0.032262660171353666
0.16123663461617208 0.006657993418335915 0.022390016374478433
0.16175320044334318 0.0030924813903229946 0.01897337786382127
0.16533595684066513 0.0014716682545580367 0.01791680642741607
0.17051759050576856 0.0004788426728059487 0.01814944909079551
0.17669133748646493 -0.0004926122264421878 0.018981887596227143
0.18354535295988622 -0.0019074046407855309 0.01984325213552325
0.1908253063835951 -0.0041330493130162516 0.019392481953513112
0.1967806129225192 -0.008420732582337056 0.011085906641377475
0.1895962153014605 -0.02562076817793108 -0.013948038907213533
0.28932441665805053 0.06312919595400503 0.050544352413571365
0.26113772079978137 0.026732212900215716 0.038819821282943874
0.2534637853951068 0.011799211961966823 0.030126647123352918
0.2551109356554792 0.00557871569155334 0.026469279832573692
0.26086437529354495 0.00264199582902601 0.025668836147741684
0.2685867990569976 0.0008424909017766288 0.026070324345111112
0.27728833975729206 -0.0008740349978977582 0.026867257012820698
0.2862707704385992 -0.003326895835289647 0.02729653175850989
0.2947196645763554 -0.007428044885746138 0.02538758665650703
0.298789086470171 -0.016830173127214652 0.017661849028923194
0.28292570595184774 -0.044793002969945324 -0.0022514635240691652
0.3969100615602501 0.07576835133554684 0.04390620914446462
0.36560674905991297 0.03339440206674034 0.038766722311992984
0.3581295007380032 0.014605904887018878 0.03404561110345836
0.3619441927763448 0.006783910346548503 0.03192373821785437
0.37017786750257214 0.0030277184038769445 0.031555643403964946
0.3802353502279258 0.0006614806081161435 0.03188086623087298
0.3908980703394065 -0.0016332048382651052 0.03233812815343417
0.401169330350557 -0.004962445490970193 0.03228978397063546
0.4093751304953097 -0.011165398458369731 0.030684099723432362
0.40953658825828676 -0.02589852643295327 0.026336959810727322
0.3854769932939649 -0.06270799868182304 0.01467360465420825
0.5067759999942858 0.07446473772540495 0.031133270436510495
0.4770168744335396 0.03246488039150334 0.0339783747754537
0.4725551130900421 0.01410451075642246 0.033984023696151555
0.47884955169268795 0.0063803087357307735 0.033985923483902496
0.48881872344632477 0.0025344374161686114 0.03404486809928152
0.5000000000000022 -9.514760231385722e-17 0.034037742973596255
0.5111812765536796 -0.0025344374161686972 0.03404486809928156
0.5211504483073167 -0.006380308735730666 0.03398592348390263
0.5274448869099624 -0.014104510756422434 0.03398402369615163
0.522983125566465 -0.03246488039150328 0.03397837477545369
0.4932240000057186 -0.07446473772540493 0.031133270436510343
0.6145230067060394 0.06270799868182306 0.01467360465420854
0.5904634117417177 0.025898526432953473 0.026336959810727152
0.5906248695046943 0.011165398458369748 0.030684099723432143
0.598830669649447 0.0049624454909701935 0.032289783970635366
0.6091019296605974 0.0016332048382649254 0.03233812815343409
0.6197646497720781 -0.0006614806081162805 0.03188086623087289
0.6298221324974319 -0.003027718403876935 0.031555643403964884
0.6380558072236592 -0.0067839103465484225 0.03192373821785424
0.6418704992620008 -0.014605904887018687 0.034045611103458176
0.6343932509400909 -0.03339440206674028 0.03876672231199276
0.603089938439754 -0.07576835133554662 0.0439062091444643
0.7170742940481564 0.04479300296994514 -0.002251463524069109
0.7012109135298338 0.016830173127214784 0.017661849028923052
0.7052803354236491 0.00742804488574604 0.025387586656506752
0.7137292295614053 0.0033268958352896463 0.027296531758509535
0.722711660242712 0.000874034997897551 0.026867257012820424
0.7314132009430064 -0.0008424909017767345 0.026070324345110755
0.7391356247064589 -0.0026419958290261297 0.02566883614774133
0.7448890643445246 -0.005578715691553157 0.026469279832573325
0.7465362146048968 -0.01179921196196669 0.03012664712335259
0.7388622792002221 -0.026732212900215654 0.03881982128294352
0.7106755833419531 -0.0631291959540048 0.05054435241357111
0.8104037846985427 0.025620768177930915 -0.013948038907213548
0.8032193870774845 0.008420732582337229 0.011085906641377156
0.8091746936164083 0.004133049313016165 0.019392481953512654
0.816454647040117 0.00190740464078558 0.01984325213552289
0.8233086625135381 0.000492612226442045 0.01898188759622689
0.8294824094942344 -0.0004788426728060369 0.018149449090795182
0.8346640431593377 -0.001471668254558152 0.0179168064274158
0.8382467995566599 -0.003092481390322812 0.01897337786382091
0.8387633653838309 -0.006657993418335875 0.022390016374478114
0.8333768088756133 -0.014642564453119457 0.03226266017135331
0.8125275019423048 -0.03809915406157691 0.049160173714273885
0.8975454388466203 0.008488660587709477 -0.015433817543210803
0.8982180573805654 0.0023501057143631926 0.008265677828832578
0.9041476835203084 0.001361775659362461 0.011004975703369153
0.9094162045145929 0.0006162086616114406 0.01052911727042989
0.9138854248927845 0.000166625797098354 0.009777150669771244
0.9176448198375607 -0.00013161447334487247 0.009320227099137749
0.920745518707822 -0.0004189168973461626 0.009367793994524984
0.9229882760989686 -0.0008738064025579615 0.010239260259000094
0.9236139315461882 -0.0020041415116060436 0.012584663985780283
0.9218004365119028 -0.004064963606231667 0.017308280161568133
0.9115408233562334 -0.012362116708623454 0.03394361295471083
1.0 0.0 0.0
1.0 0.0 0.0
1.0 0.0 0.0
1.0 0.0 0.0
1.0 0.0 0.0
1.0 0.0 0.0
1.0 0.0 0.0
1.0 0.0 0.0
1.0 0.0 0.0
1.0 0.0 0.0
1.0 0.0 0.0
0.0 0.0 0.0
0.0 0.0 0.0
0.0 0.0 0.0
0.0 0.0 0.0
0.0 0.0 0.0
0.0 0.0 0.0
0.0 0.0 0.0
0.0 0.0 0.0
0.0 0.0 0.0
0.0 0.0 0.0
0.0 0.0 0.0
0.09236010193926543 0.01209739070329982 0.020966790676553586
0.08131186874555155 0.003701673353636098 0.011213913364883739
0.07964294837989447 0.001878183252708479 0.00835183355343853
0.0802229330468294 0.0007103495047773177 0.006730610456019218
0.08235316921509876 0.0002314985919001029 0.0060381127773839185
0.08529631750006467 -6.0816219128846086e-05 0.005971278859139126
0.08890858717479688 -0.0003450983794883971 0.006291832920015394
0.09330143008582001 -0.0007502668523881235 0.0068745207159962
0.09863761104513383 -0.0014814269603609482 0.007369864788098955
0.10487318917283103 -0.0027041132696772386 0.005863457398169668
0.10759461808957188 -0.008138246436663091 -0.00890404729983518
0.19166370780487224 0.03655145089367846 0.030845717950400094