# vtk DataFile Version 3.0
Some data
ASCII
DATASET UNSTRUCTURED_GRID
POINTS 1331 float
0.0 0.0 0.0
0.1 0.0 0.0
0.2 0.0 0.0
0.30000000000000004 0.0 0.0
0.4 0.0 0.0
0.5 0.0 0.0
0.6000000000000001 0.0 0.0
0.7000000000000001 0.0 0.0
0.8 0.0 0.0
0.9 0.0 0.0
1.0 0.0 0.0
0.0 0.1 0.0
0.1 0.1 0.0
0.2 0.1 0.0
0.30000000000000004 0.1 0.0
0.4 0.1 0.0
0.5 0.1 0.0
0.6000000000000001 0.1 0.0
0.7000000000000001 0.1 0.0
0.8 0.1 0.0
0.9 0.1 0.0
1.0 0.1 0.0
0.0 0.2 0.0
0.1 0.2 0.0
0.2 0.2 0.0
0.30000000000000004 0.2 0.0
0.4 0.2 0.0
0.5 0.2 0.0
0.6000000000000001 0.2 0.0
0.7000000000000001 0.2 0.0
0.8 0.2 0.0
0.9 0.2 0.0
1.0 0.2 0.0
0.0 0.30000000000000004 0.0
0.1 0.30000000000000004 0.0
0.2 0.30000000000000004 0.0
0.30000000000000004 0.30000000000000004 0.0
0.4 0.30000000000000004 0.0
0.5 0.30000000000000004 0.0
0.6000000000000001 0.30000000000000004 0.0
0.7000000000000001 0.30000000000000004 0.0
0.8 0.30000000000000004 0.0
0.9 0.30000000000000004 0.0
1.0 0.30000000000000004 0.0
0.0 0.4 0.0
0.1 0.4 0.0
0.2 0.4 0.0
0.30000000000000004 0.4 0.0
0.4 0.4 0.0
0.5 0.4 0.0
0.6000000000000001 0.4 0.0
0.7000000000000001 0.4 0.0
0.8 0.4 0.0
0.9 0.4 0.0
1.0 0.4 0.0
0.0 0.5 0.0
0.1 0.5 0.0
0.2 0.5 0.0
0.30000000000000004 0.5 0.0
0.4 0.5 0.0
0.5 0.5 0.0
0.6000000000000001 0.5 0.0
0.7000000000000001 0.5 0.0
0.8 0.5 0.0
0.9 0.5 0.0
1.0 0.5 0.0
0.0 0.6000000000000001 0.0
0.1 0.6000000000000001 0.0
0.2 0.6000000000000001 0.0
0.30000000000000004 0.6000000000000001 0.0
0.4 0.6000000000000001 0.0
0.5 0.6000000000000001 0.0
0.6000000000000001 0.6000000000000001 0.0
0.7000000000000001 0.6000000000000001 0.0
0.8 0.6000000000000001 0.0
0.9 0.6000000000000001 0.0
1.0 0.6000000000000001 0.0
0.0 0.7000000000000001 0.0
0.1 0.7000000000000001 0.0
0.2 0.7000000000000001 0.0
0.30000000000000004 0.7000000000000001 0.0
0.4 0.7000000000000001 0.0
0.5 0.7000000000000001 0.0
0.6000000000000001 0.7000000000000001 0.0
0.7000000000000001 0.7000000000000001 0.0
0.8 0.7000000000000001 0.0
0.9 0.7000000000000001 0.0
1.0 0.7000000000000001 0.0
0.0 0.8 0.0
0.1 0.8 0.0
0.2 0.8 0.0
0.30000000000000004 0.8 0.0
0.4 0.8 0.0
0.5 0.8 0.0
0.6000000000000001 0.8 0.0
0.7000000000000001 0.8 0.0
0.8 0.8 0.0
0.9 0.8 0.0
1.0 0.8 0.0
0.0 0.9 0.0
0.1 0.9 0.0
0.2 0.9 0.0
0.30000000000000004 0.9 0.0
0.4 0.9 0.0
0.5 0.9 0.0
0.6000000000000001 0.9 0.0
0.7000000000000001 0.9 0.0
0.8 0.9 0.0
0.9 0.9 0.0
1.0 0.9 0.0
0.0 1.0 0.0
0.1 1.0 0.0
0.2 1.0 0.0
0.30000000000000004 1.0 0.0
0.4 1.0 0.0
0.5 1.0 0.0
0.6000000000000001 1.0 0.0
0.7000000000000001 1.0 0.0
0.8 1.0 0.0
0.9 1.0 0.0
1.0 1.0 0.0
0.0 0.0 0.1
0.1 0.0 0.1
0.2 0.0 0.1
0.30000000000000004 0.0 0.1
0.4 0.0 0.1
0.5 0.0 0.1
0.6000000000000001 0.0 0.1
0.7000000000000001 0.0 0.1
0.8 0.0 0.1
0.9 0.0 0.1
1.0 0.0 0.1
0.0 0.1 0.1
0.1 0.1 0.1
0.2 0.1 0.1
0.30000000000000004 0.1 0.1
0.4 0.1 0.1
0.5 0.1 0.1
0.6000000000000001 0.1 0.1
0.7000000000000001 0.1 0.1
0.8 0.1 0.1
0.9 0.1 0.1
1.0 0.1 0.1
0.0 0.2 0.1
0.1 0.2 0.1
0.2 0.2 0.1
0.30000000000000004 0.2 0.1
0.4 0.2 0.1
0.5 0.2 0.1
0.6000000000000001 0.2 0.1
0.7000000000000001 0.2 0.1
0.8 0.2 0.1
0.9 0.2 0.1
1.0 0.2 0.1
0.0 0.30000000000000004 0.1
0.1 0.30000000000000004 0.1
0.2 0.30000000000000004 0.1
0.30000000000000004 0.30000000000000004 0.1
0.4 0.30000000000000004 0.1
0.5 0.30000000000000004 0.1
0.6000000000000001 0.30000000000000004 0.1
0.7000000000000001 0.30000000000000004 0.1
0.8 0.30000000000000004 0.1
0.9 0.30000000000000004 0.1
1.0 0.30000000000000004 0.1
0.0 0.4 0.1
0.1 0.4 0.1
0.2 0.4 0.1
0.30000000000000004 0.4 0.1
0.4 0.4 0.1
0.5 0.4 0.1
0.6000000000000001 0.4 0.1
0.7000000000000001 0.4 0.1
0.8 0.4 0.1
0.9 0.4 0.1
1.0 0.4 0.1
0.0 0.5 0.1
0.1 0.5 0.1
0.2 0.5 0.1
0.30000000000000004 0.5 0.1
0.4 0.5 0.1
0.5 0.5 0.1
0.6000000000000001 0.5 0.1
0.7000000000000001 0.5 0.1
0.8 0.5 0.1
0.9 0.5 0.1
1.0 0.5 0.1
0.0 0.6000000000000001 0.1
0.1 0.6000000000000001 0.1
0.2 0.6000000000000001 0.1
0.30000000000000004 0.6000000000000001 0.1
0.4 0.6000000000000001 0.1
0.5 0.6000000000000001 0.1
0.6000000000000001 0.6000000000000001 0.1
0.7000000000000001 0.6000000000000001 0.1
0.8 0.6000000000000001 0.1
0.9 0.6000000000000001 0.1
1.0 0.6000000000000001 0.1
0.0 0.7000000000000001 0.1
0.1 0.7000000000000001 0.1
0.2 0.7000000000000001 0.1
0.30000000000000004 0.7000000000000001 0.1
0.4 0.7000000000000001 0.1
0.5 0.7000000000000001 0.1
0.6000000000000001 0.7000000000000001 0.1
0.7000000000000001 0.7000000000000001 0.1
0.8 0.7000000000000001 0.1
0.9 0.7000000000000001 0.1
1.0 0.7000000000000001 0.1
0.0 0.8 0.1
0.1 0.8 0.1
0.2 0.8 0.1
0.30000000000000004 0.8 0.1
0.4 0.8 0.1
0.5 0.8 0.1
0.6000000000000001 0.8 0.1
0.7000000000000001 0.8 0.1
0.8 0.8 0.1
0.9 0.8 0.1
1.0 0.8 0.1
0.0 0.9 0.1
0.1 0.9 0.1
0.2 0.9 0.1
0.30000000000000004 0.9 0.1
0.4 0.9 0.1
0.5 0.9 0.1
0.6000000000000001 0.9 0.1
0.7000000000000001 0.9 0.1
0.8 0.9 0.1
0.9 0.9 0.1
1.0 0.9 0.1
0.0 1.0 0.1
0.1 1.0 0.1
0.2 1.0 0.1
0.30000000000000004 1.0 0.1
0.4 1.0 0.1
0.5 1.0 0.1
0.6000000000000001 1.0 0.1
0.7000000000000001 1.0 0.1
0.8 1.0 0.1
0.9 1.0 0.1
1.0 1.0 0.1
0.0 0.0 0.2
0.1 0.0 0.2
0.2 0.0 0.2
0.30000000000000004 0.0 0.2
0.4 0.0 0.2
0.5 0.0 0.2
0.6000000000000001 0.0 0.2
0.7000000000000001 0.0 0.2
0.8 0.0 0.2
0.9 0.0 0.2
1.0 0.0 0.2
0.0 0.1 0.2
0.1 0.1 0.2
0.2 0.1 0.2
0.30000000000000004 0.1 0.2
0.4 0.1 0.2
0.5 0.1 0.2
0.6000000000000001 0.1 0.2
0.7000000000000001 0.1 0.2
0.8 0.1 0.2
0.9 0.1 0.2
1.0 0.1 0.2
0.0 0.2 0.2
0.1 0.2 0.2
0.2 0.2 0.2
0.30000000000000004 0.2 0.2
0.4 0.2 0.2
0.5 0.2 0.2
0.6000000000000001 0.2 0.2
0.7000000000000001 0.2 0.2
0.8 0.2 0.2
0.9 0.2 0.2
1.0 0.2 0.2
0.0 0.30000000000000004 0.2
0.1 0.30000000000000004 0.2
0.2 0.30000000000000004 0.2
0.30000000000000004 0.30000000000000004 0.2
0.4 0.30000000000000004 0.2
0.5 0.30000000000000004 0.2
0.6000000000000001 0.30000000000000004 0.2
0.7000000000000001 0.30000000000000004 0.2
0.8 0.30000000000000004 0.2
0.9 0.30000000000000004 0.2
1.0 0.30000000000000004 0.2
0.0 0.4 0.2
0.1 0.4 0.2
0.2 0.4 0.2
0.30000000000000004 0.4 0.2
0.4 0.4 0.2
0.5 0.4 0.2
0.6000000000000001 0.4 0.2
0.7000000000000001 0.4 0.2
0.8 0.4 0.2
0.9 0.4 0.2
1.0 0.4 0.2
0.0 0.5 0.2
0.1 0.5 0.2
0.2 0.5 0.2
0.30000000000000004 0.5 0.2
0.4 0.5 0.2
0.5 0.5 0.2
0.6000000000000001 0.5 0.2
0.7000000000000001 0.5 0.2
0.8 0.5 0.2
0.9 0.5 0.2
1.0 0.5 0.2
0.0 0.6000000000000001 0.2
0.1 0.6000000000000001 0.2
0.2 0.6000000000000001 0.2
0.30000000000000004 0.6000000000000001 0.2
0.4 0.6000000000000001 0.2
0.5 0.6000000000000001 0.2
0.6000000000000001 0.6000000000000001 0.2
0.7000000000000001 0.6000000000000001 0.2
0.8 0.6000000000000001 0.2
0.9 0.6000000000000001 0.2
1.0 0.6000000000000001 0.2
0.0 0.7000000000000001 0.2
0.1 0.7000000000000001 0.2
0.2 0.7000000000000001 0.2
0.30000000000000004 0.7000000000000001 0.2
0.4 0.7000000000000001 0.2
0.5 0.7000000000000001 0.2
0.6000000000000001 0.7000000000000001 0.2
0.7000000000000001 0.7000000000000001 0.2
0.8 0.7000000000000001 0.2
0.9 0.7000000000000001 0.2
1.0 0.7000000000000001 0.2
0.0 0.8 0.2
0.1 0.8 0.2
0.2 0.8 0.2
0.30000000000000004 0.8 0.2
0.4 0.8 0.2
0.5 0.8 0.2
0.6000000000000001 0.8 0.2
0.7000000000000001 0.8 0.2
0.8 0.8 0.2
0.9 0.8 0.2
1.0 0.8 0.2
0.0 0.9 0.2
0.1 0.9 0.2
0.2 0.9 0.2
0.30000000000000004 0.9 0.2
0.4 0.9 0.2
0.5 0.9 0.2
0.6000000000000001 0.9 0.2
0.7000000000000001 0.9 0.2
0.8 0.9 0.2
0.9 0.9 0.2
1.0 0.9 0.2
0.0 1.0 0.2
0.1 1.0 0.2
0.2 1.0 0.2
0.30000000000000004 1.0 0.2
0.4 1.0 0.2
0.5 1.0 0.2
0.6000000000000001 1.0 0.2
0.7000000000000001 1.0 0.2
0.8 1.0 0.2
0.9 1.0 0.2
1.0 1.0 0.2
0.0 0.0 0.30000000000000004
0.1 0.0 0.30000000000000004
0.2 0.0 0.30000000000000004
0.30000000000000004 0.0 0.30000000000000004
0.4 0.0 0.30000000000000004
0.5 0.0 0.30000000000000004
0.6000000000000001 0.0 0.30000000000000004
0.7000000000000001 0.0 0.30000000000000004
0.8 0.0 0.30000000000000004
0.9 0.0 0.30000000000000004
1.0 0.0 0.30000000000000004
0.0 0.1 0.30000000000000004
0.1 0.1 0.30000000000000004
0.2 0.1 0.30000000000000004
0.30000000000000004 0.1 0.30000000000000004
0.4 0.1 0.30000000000000004
0.5 0.1 0.30000000000000004
0.6000000000000001 0.1 0.30000000000000004
0.7000000000000001 0.1 0.30000000000000004
0.8 0.1 0.30000000000000004
0.9 0.1 0.30000000000000004
1.0 0.1 0.30000000000000004
0.0 0.2 0.30000000000000004
0.1 0.2 0.30000000000000004
0.2 0.2 0.30000000000000004
0.30000000000000004 0.2 0.30000000000000004
0.4 0.2 0.30000000000000004
0.5 0.2 0.30000000000000004
0.6000000000000001 0.2 0.30000000000000004
0.7000000000000001 0.2 0.30000000000000004
0.8 0.2 0.30000000000000004
0.9 0.2 0.30000000000000004
1.0 0.2 0.30000000000000004
0.0 0.30000000000000004 0.30000000000000004
0.1 0.30000000000000004 0.30000000000000004
0.2 0.30000000000000004 0.30000000000000004
0.30000000000000004 0.30000000000000004 0.30000000000000004
0.4 0.30000000000000004 0.30000000000000004
0.5 0.30000000000000004 0.30000000000000004
0.6000000000000001 0.30000000000000004 0.30000000000000004
0.7000000000000001 0.30000000000000004 0.30000000000000004
0.8 0.30000000000000004 0.30000000000000004
0.9 0.30000000000000004 0.30000000000000004
1.0 0.30000000000000004 0.30000000000000004
0.0 0.4 0.30000000000000004
0.1 0.4 0.30000000000000004
0.2 0.4 0.30000000000000004
0.30000000000000004 0.4 0.30000000000000004
0.4 0.4 0.30000000000000004
0.5 0.4 0.30000000000000004
0.6000000000000001 0.4 0.30000000000000004
0.7000000000000001 0.4 0.30000000000000004
0.8 0.4 0.30000000000000004
0.9 0.4 0.30000000000000004
1.0 0.4 0.30000000000000004
0.0 0.5 0.30000000000000004
0.1 0.5 0.30000000000000004
0.2 0.5 0.30000000000000004
0.30000000000000004 0.5 0.30000000000000004
0.4 0.5 0.30000000000000004
0.5 0.5 0.30000000000000004
0.6000000000000001 0.5 0.30000000000000004
0.7000000000000001 0.5 0.30000000000000004
0.8 0.5 0.30000000000000004
0.9 0.5 0.30000000000000004
1.0 0.5 0.30000000000000004
0.0 0.6000000000000001 0.30000000000000004
0.1 0.6000000000000001 0.30000000000000004
0.2 0.6000000000000001 0.30000000000000004
0.30000000000000004 0.6000000000000001 0.30000000000000004
[...]
POINT_DATA 1331
VECTORS Disp float
0.0 0.0 0.0
0.0 0.0 0.0
0.0 0.0 0.0
0.0 0.0 0.0
0.0 0.0 0.0
0.0 0.0 0.0
0.0 0.0 0.0
0.0 0.0 0.0
0.0 0.0 0.0
0.0 0.0 0.0
0.0 0.0 0.0
0.029264548824706818 0.011468179364046238 0.03348888050868479
0.02270717165925909 0.005099992689267437 0.016206059228863277
0.020675719905702456 0.0026937392516806404 0.010548690034966576
0.021032698539836088 0.0014873828851374735 0.0074065628435593615
0.022158453128052945 0.0009444969954815846 0.005227929878750276
0.023109036035913105 0.0007086777527589436 0.0034741312086743344
0.023471764885760152 0.0006031529943566708 0.0019694373912835872
0.02314789697812738 0.000485040430891342 0.0006248403964464961
0.022440065757047004 6.657501374819858e-05 -0.000626346630729467
0.022263867879873292 -0.0003496694092898191 -0.003782079204940535
0.020314134918233993 -0.006874608564960632 -0.02810725732431428
0.05869534678275931 0.030889996811773675 0.04011391932494532
0.05074523076482541 0.01379123160561034 0.024238047331091115
0.04844341548753235 0.006534842528439266 0.014525628625362252
0.04902566926266691 0.0032514099396436314 0.009957310982404492
0.050436068211829416 0.0018275376150449323 0.00691490851340663
0.05168646351411267 0.0012590254232117354 0.004698884029200289
0.05237227305855506 0.0010158960833589058 0.002925392057702481
0.05240750328632057 0.0006342537647750154 0.0012964010203509518
0.05204395256022301 -0.0004663981485897032 -0.0006186121555165735
0.05197969111739477 -0.0031246503874169376 -0.007084968684579213
0.0478383339440184 -0.019779164019696423 -0.026489497791550305
0.09480294561771865 0.044618489716195905 0.03534028084787158
0.08661208945350979 0.0199714110802919 0.02323161433392726
0.08438586661832789 0.00881110335814503 0.014904689158103133
0.08502390911526918 0.004027446903121619 0.01027522350487125
0.08650908388417619 0.001992093773472745 0.007371149185020309
0.0879719465983585 0.0011958934295251897 0.005421060306832621
0.08907692142261041 0.0007583277662423615 0.0039924920734619555
0.08979367740196778 -6.67806906014371e-05 0.0027127180045570676
0.09036533618161773 -0.0022925669969167586 0.0006065491707532065
0.09101320938555135 -0.0083239007791493 -0.003982872119039589
0.08565858404163552 -0.033014173554082225 -0.014988587081789642
0.13626366278314744 0.050501305155456484 0.02452514030266935
0.12801700147852807 0.02158825785134793 0.017004017154151348
0.12640077029516897 0.009066732286172717 0.012178949111044297
0.12713005676881348 0.003754696737063707 0.008889490749231569
0.1285185568797057 0.0015632177951021612 0.006827230003779069
0.12995493444614364 0.0006959289400929574 0.005604378234239902
0.13120878932640034 5.208267680700083e-05 0.004906534337255173
0.13225738825545136 -0.0013307582391968407 0.00441102650572549
0.1331309122542499 -0.005026368705155912 0.003604390720776536
0.13346137520761375 -0.014141590166513354 0.0017766014716695082
0.12685629226426162 -0.04336709165234267 -0.0018636166059578488
0.1802414213722602 0.04946504408066349 0.011013354606056434
0.17248313594510023 0.019055543379256575 0.008864953558021343
0.17180200482375096 0.007562925667089343 0.007684625237850903
0.17255950700718353 0.002705750710966279 0.006440602944081771
0.17372516824715964 0.0007978528146803779 0.005700852406423503
0.17499999999999988 -3.769646797691245e-17 0.005451667215065861
0.17627483175284026 -0.0007978528146803651 0.005700852406423601
0.17744049299281642 -0.002705750710966241 0.006440602944081874
0.17819799517624907 -0.0075629256670892795 0.007684625237850955
0.17751686405489978 -0.019055543379256586 0.008864953558021409
0.16975857862773985 -0.049465044080663545 0.011013354606056597
0.22314370773573866 0.04336709165234259 -0.0018636166059580138
0.21653862479238645 0.01414159016651335 0.0017766014716693933
0.21686908774575028 0.005026368705155997 0.00360439072077637
0.21774261174454884 0.0013307582391969002 0.004411026505725381
0.21879121067359983 -5.2082676806973726e-05 0.004906534337255099
0.2200450655538565 -0.0006959289400929875 0.005604378234239864
0.2214814431202944 -0.0015632177951021814 0.006827230003779036
0.22286994323118658 -0.003754696737063726 0.008889490749231597
0.22359922970483104 -0.009066732286172715 0.012178949111044376
0.221982998521472 -0.02158825785134791 0.017004017154151466
0.21373633721685253 -0.05050130515545656 0.024525140302669373
0.26434141595836486 0.033014173554082135 -0.014988587081789828
0.25898679061444907 0.008323900779149322 -0.003982872119039677
0.2596346638183827 0.0022925669969168284 0.0006065491707530946
0.26020632259803256 6.678069060152286e-05 0.002712718004556869
0.2609230785773898 -0.0007583277662423548 0.003992492073461826
0.2620280534016416 -0.0011958934295251994 0.005421060306832608
0.2634909161158239 -0.0019920937734727857 0.0073711491850203086
0.26497609088473095 -0.004027446903121614 0.010275223504871282
0.2656141333816723 -0.008811103358145049 0.014904689158103187
0.2633879105464904 -0.019971411080291844 0.02323161433392735
0.25519705438228146 -0.04461848971619594 0.03534028084787164
0.3021616660559818 0.01977916401969643 -0.026489497791550392
0.2980203088826054 0.0031246503874169723 -0.007084968684579257
0.29795604743977716 0.0004663981485897818 -0.0006186121555166173
0.2975924967136797 -0.0006342537647749881 0.0012964010203509093
0.29762772694144524 -0.00101589608335889 0.002925392057702478
0.29831353648588765 -0.001259025423211723 0.004698884029200268
0.29956393178817087 -0.0018275376150449635 0.0069149085134066245
0.30097433073733343 -0.0032514099396436466 0.009957310982404481
0.301556584512468 -0.006534842528439322 0.01452562862536223
0.2992547692351749 -0.0137912316056103 0.02423804733109114
0.29130465321724097 -0.03088999681177371 0.04011391932494541
0.32968586508176606 0.006874608564960659 -0.028107257324314076
0.3277361321201269 0.0003496694092898579 -0.003782079204940617
0.32755993424295315 -6.657501374820463e-05 -0.0006263466307295583
0.3268521030218728 -0.0004850404308913515 0.0006248403964464473
0.32652823511424006 -0.000603152994356663 0.001969437391283535
0.3268909639640871 -0.0007086777527589338 0.0034741312086742707
0.32784154687194733 -0.0009444969954815867 0.005227929878750202
0.3289673014601641 -0.0014873828851374748 0.0074065628435592695
0.3293242800942977 -0.0026937392516806742 0.010548690034966514
0.32729282834074114 -0.00509999268926743 0.016206059228863243
0.32073545117529345 -0.011468179364046238 0.03348888050868483
0.35 0.0 0.0
0.35 0.0 0.0
0.35 0.0 0.0
0.35 0.0 0.0
0.35 0.0 0.0
0.35 0.0 0.0
0.35 0.0 0.0
0.35 0.0 0.0
0.35 0.0 0.0
0.35 0.0 0.0
0.35 0.0 0.0
0.0 0.0 0.0
0.0 0.0 0.0
0.0 0.0 0.0
0.0 0.0 0.0
0.0 0.0 0.0
0.0 0.0 0.0
0.0 0.0 0.0
0.0 0.0 0.0
0.0 0.0 0.0
0.0 0.0 0.0
0.0 0.0 0.0
0.03529649091408588 0.009863871510148529 0.02229134319859078
0.028743262295885856 0.0035797121759865566 0.011585722491082471
0.02606531930966971 0.0018356934724620957 0.007377131109087028
0.025228514075578246 0.0008945660905973097 0.004922606588270597
0.025324091951683017 0.0004657237072832951 0.003376981637301454
0.0256796024528591 0.0002494230455234649 0.002255740710660509
0.025970750381270967 0.00011435824447558868 0.0013673074781200309
0.02619138985846007 -6.110239172078314e-05 0.000585056266853404
0.02672084213006215 -0.000514014334673362 -0.0003516819995898015
0.028391997532070074 -0.0015719224835191246 -0.003317657460179335
0.03042380821417935 -0.009473114783171303 -0.018210950877288537
0.06808814424784228 0.02892888984880163 0.027868489967504323
0.058411099328851045 0.01258335695615552 0.017775755765892225
0.05407256190672256 0.005920634466876771 0.010695701083044417
0.05288500084342086 0.0028334735515357368 0.007205751076117638
0.05313342522836956 0.0013618278603644935 0.0049867020493816975
0.05381754516110461 0.0006601243587183315 0.0034767749566333183
0.05450047869668563 0.00019129079675021614 0.0023359136074631065
0.055217033953837744 -0.0005498468871616881 0.0012608718048070272
0.056474963138331495 -0.00219214927479468 -0.00034216404443529523
0.05883177214853403 -0.006772332769931246 -0.005728325604293481
0.05926818868071729 -0.025315619983243574 -0.017934202386845288
0.1039479275397315 0.04488063783489552 0.02540919671608717
0.09382632431865008 0.02098552872602933 0.017511866095246794
0.08934495360923107 0.009462204301299777 0.011402708154564773
0.08833051142634861 0.004272455971244998 0.00781893552320503
0.08878623470449915 0.0018641725298394612 0.005644699749433793
0.0897323154751181 0.0007202905822276566 0.0042555641482428935
0.0907817192158883 -0.0001519986032801149 0.003283054364823765
0.09192272129562976 -0.0016483797634779145 0.0023261756937471255
0.09339645945925479 -0.004982492349903889 0.00048513800897971354
0.09494758354123096 -0.01380460784638478 -0.0033349979653800412
0.0923809554086931 -0.0399730672849547 -0.010536961840986922
0.1427276294529077 0.05353198466074103 0.017867966039198494
0.13339181265833264 0.025064060131240094 0.01313380952403339
0.12982428960891187 0.01100940489411634 0.009444295079721998
0.12929038495853692 0.004723709135633951 0.006990403120913187
0.12989833157499564 0.0018605681933359396 0.005451489480033791
0.13091347842132187 0.00044934245360594033 0.004572845016463534
0.1320253993482057 -0.0007914041166272906 0.004081447129712484
0.13312858020988103 -0.0030334507641495445 0.0036504354723913466
0.13411184025501308 -0.008034017446530584 0.0028388836693757436
0.13394038256247837 -0.020149115164727536 0.0013172699140026457
0.12831274900655112 -0.05002471996434528 -0.0014506863314404446
0.183001567944298 0.05472935756586891 0.007885952896213775
0.17511457732676985 0.024331451234126777 0.006953764855254362
0.17307820567922758 0.010325850099488366 0.0060254872750893146
0.1732146276407075 0.004207839540106888 0.005232640435028218
0.17399596549976798 0.0014426337352956618 0.004714291978928163
0.1749999999999999 -3.072361494573614e-18 0.004538251577765913
0.1760040345002319 -0.00144263373529563 0.004714291978928203
0.1767853723592924 -0.004207839540106806 0.005232640435028333
0.17692179432077226 -0.010325850099488344 0.0060254872750894264
0.17488542267322996 -0.02433145123412673 0.0069537648552544466
0.16699843205570178 -0.054729357565868914 0.007885952896213865
0.22168725099344902 0.05002471996434518 -0.0014506863314405702
0.21605961743752175 0.020149115164727553 0.001317269914002537
0.215888159744987 0.008034017446530622 0.0028388836693755914
0.2168714197901191 0.0030334507641496256 0.003650435472391217
0.21797460065179441 0.0007914041166272938 0.004081447129712427
0.21908652157867822 -0.0004493424536059551 0.0045728450164635075
0.2201016684250044 -0.0018605681933359128 0.005451489480033846
0.22070961504146308 -0.00472370913563386 0.006990403120913261
0.22017571039108808 -0.01100940489411631 0.009444295079722087
0.21660818734166729 -0.025064060131240084 0.013133809524033476
0.20727237054709224 -0.05353198466074103 0.017867966039198605
0.25761904459130713 0.03997306728495462 -0.01053696184098708
0.2550524164587693 0.013804607846384799 -0.003334997965380109
0.2566035405407454 0.004982492349903947 0.00048513800897964946
0.2580772787043704 0.0016483797634779722 0.0023261756937470214
0.2592182807841118 0.00015199860328008304 0.003283054364823704
0.260267684524882 -0.0007202905822276521 0.004255564148242877
0.26121376529550094 -0.001864172529839456 0.005644699749433822
0.2616694885736515 -0.004272455971244919 0.00781893552320504
0.260655046390769 -0.009462204301299758 0.011402708154564815
0.25617367568134997 -0.020985528726029337 0.01751186609524685
0.24605207246026856 -0.0448806378348956 0.025409196716087233
0.29073181131928294 0.025315619983243467 -0.017934202386845344
0.2911682278514663 0.006772332769931307 -0.00572832560429355
0.2935250368616688 0.0021921492747947395 -0.0003421640444353748
0.2947829660461626 0.0005498468871617304 0.0012608718048069862
0.29549952130331464 -0.00019129079675024818 0.0023359136074630796
0.29618245483889566 -0.0006601243587183141 0.003476774956633298
0.29686657477163075 -0.0013618278603645122 0.004986702049381684
0.29711499915657946 -0.002833473551535683 0.007205751076117596
0.2959274380932778 -0.005920634466876779 0.010695701083044393
0.29158890067114934 -0.012583356956155563 0.01777575576589224
0.281911855752158 -0.028928889848801716 0.02786848996750437
0.3195761917858207 0.009473114783171276 -0.01821095087728843
0.3216080024679301 0.0015719224835191385 -0.003317657460179391
0.3232791578699381 0.0005140143346733993 -0.0003516819995898643
0.32380861014154017 6.110239172080793e-05 0.0005850562668533632
0.32402924961872925 -0.00011435824447557568 0.0013673074781199624
0.3243203975471412 -0.0002494230455234565 0.0022557407106604315
0.32467590804831725 -0.0004657237072832916 0.00337698163730139
0.324771485924422 -0.0008945660905973024 0.004922606588270547
0.3239346806903305 -0.0018356934724621124 0.007377131109086995
0.3212567377041143 -0.003579712175986551 0.01158572249108244
0.31470350908591427 -0.009863871510148545 0.02229134319859076
0.35 0.0 0.0
0.35 0.0 0.0
0.35 0.0 0.0
0.35 0.0 0.0
0.35 0.0 0.0
0.35 0.0 0.0
0.35 0.0 0.0
0.35 0.0 0.0
0.35 0.0 0.0
0.35 0.0 0.0
0.35 0.0 0.0
0.0 0.0 0.0
0.0 0.0 0.0
0.0 0.0 0.0
0.0 0.0 0.0
0.0 0.0 0.0
0.0 0.0 0.0
0.0 0.0 0.0
0.0 0.0 0.0
0.0 0.0 0.0
0.0 0.0 0.0
0.0 0.0 0.0
0.03982633523821898 0.01020642861375302 0.013940511101431336
0.03160360706289217 0.0037352608992612174 0.008161746055666289
0.028375362228000592 0.001988102971736375 0.005383807421964959
0.027069171797061788 0.0009348811800911415 0.003523044935077977
0.02679468910395326 0.0004511844531958165 0.0023560222876865974
0.02695006150775283 0.0002043138942573321 0.001572323542265605
0.02723981787264429 4.4119909002525705e-05 0.0009892744855499271
0.027670225730098044 -0.00017793849767050928 0.00046025990345928864
0.028602315365266903 -0.0007940242315390643 -0.0004028403350125033
0.030949664130046718 -0.0023878291189600633 -0.002643947816142547
0.03575913148217696 -0.010304311874729778 -0.010486603501181024
0.07248298298910384 0.028623650278479424 0.01830869464012636
0.0620629420134753 0.012906748021766681 0.012478598590770013
0.05719880819373317 0.006070455615889814 0.007825724552086705
0.05549675225669862 0.0028105722181165868 0.00520299916094522
0.055313721348077355 0.001229934992808858 0.0035519671410035756
0.05577203759548371 0.00044889516769788004 0.002478687257319277
0.05648186485052005 -9.995008190595496e-05 0.0016893033876479772
0.057460078394660115 -0.0009593026040943345 0.0008706860160642949
0.05905453499737073 -0.0029105042029067404 -0.000544971476234926
0.061649200693280615 -0.00879611662773851 -0.004353132612770928
0.06453517189043095 -0.026118979125933164 -0.010905189406807594
0.1077085625999025 0.043821799337561605 0.01722934929354354
0.09738112377700046 0.021410430657444263 0.01245253097435795
0.0923477209474756 0.009883756580780063 0.008377544881283717
0.09068689059678135 0.004416731592018762 0.005726609349295103
0.09067272200569677 0.0018039799981596364 0.0041228347908835354
0.09135957735025799 0.0004776171653351133 0.003116017001664289
0.09235972786674511 -0.0005790320138353021 0.0024014900720384156
0.0936274119246911 -0.002308755140822092 0.0016095248519827922
0.09526732912231783 -0.0061321632881568295 9.293838825994577e-05
0.09665564720034023 -0.016342172688191645 -0.002580246555096282
0.09606436786371082 -0.040219929512077146 -0.006610496723867974
0.1452825043093149 0.052546388171797326 0.012303814223620702
0.13611316066649418 0.026092408421664173 0.009478556705499037
0.131938221711154 0.011928569093889004 0.0069240418137284255
0.13080742453499766 0.005185961942046205 0.0051552747782436905
0.13103876409551002 0.0019835343280695727 0.004057391780886481
0.13182369214371722 0.0002947520999825122 0.0034247333818914066
0.13281325939324284 -0.0012160068803709367 0.0030413932402910122
0.1338464901855138 -0.003815547489935932 0.00263231502510036
0.13469352691867767 -0.009429394245395276 0.001942062767576985
0.13412816647512488 -0.02264466817926915 0.0009186544835178235
0.1299853613206968 -0.04993521075854196 -0.00083191130437771
0.1835596380909821 0.05428768890621115 0.005406132079170062
0.17645599063284725 0.026252128301075303 0.005047638493035285
0.17386443861527184 0.011638687501014508 0.004386750835346241
0.1736099636163164 0.004916669858601628 0.0038750526238511503
0.17416964494652684 0.0017491778260108873 0.003561338498040756
0.175 2.2642266126810108e-17 0.00345245874391589
0.17583035505347314 -0.0017491778260108894 0.0035613384980407808
0.17639003638368358 -0.004916669858601601 0.003875052623851262
0.17613556138472816 -0.011638687501014437 0.004386750835346358
0.17354400936715275 -0.026252128301075303 0.005047638493035387
0.1664403619090179 -0.05428768890621122 0.005406132079170121
0.22001463867930332 0.049935210758541876 -0.0008319113043778113
0.2158718335248752 0.022644668179269144 0.0009186544835177342
0.2153064730813224 0.009429394245395335 0.0019420627675768916
0.21615350981448617 0.0038155474899359736 0.0026323150251002544
0.21718674060675705 0.0012160068803709428 0.0030413932402909797
0.21817630785628267 -0.0002947520999824984 0.0034247333818914066
0.21896123590448985 -0.0019835343280695584 0.004057391780886571
0.21919257546500223 -0.005185961942046165 0.005155274778243778
0.2180617782888459 -0.011928569093888935 0.006924041813728495
0.21388683933350572 -0.02609240842166415 0.0094785567054991
0.20471749569068498 -0.052546388171797354 0.012303814223620778
0.25393563213628934 0.040219929512077056 -0.006610496723868109
0.25334435279965994 0.016342172688191634 -0.002580246555096345
0.25473267087768237 0.006132163288156844 9.293838825991173e-05
0.2563725880753091 0.0023087551408221586 0.0016095248519827428
0.257640272133255 0.0005790320138353227 0.002401490072038392
0.2586404226497421 -0.0004776171653351198 0.003116017001664272
0.2593272779943034 -0.0018039799981596296 0.00412283479088357
0.2593131094032188 -0.004416731592018716 0.0057266093492951385
0.2576522790525245 -0.009883756580780034 0.008377544881283784
0.2526188762229997 -0.021410430657444263 0.012452530974357999
0.24229143740009765 -0.043821799337561626 0.01722934929354358
0.2854648281095693 0.02611897912593305 -0.010905189406807654
0.2883507993067197 0.008796116627738472 -0.004353132612771005
0.2909454650026296 0.002910504202906741 -0.0005449714762349799
0.29253992160534015 0.0009593026040943805 0.0008706860160642697
0.2935181351494802 9.995008190596998e-05 0.0016893033876479498
0.29422796240451654 -0.00044889516769787294 0.0024786872573192347
0.29468627865192293 -0.0012299349928088642 0.003551967141003532
0.29450324774330167 -0.002810572218116571 0.0052029991609452144
0.2928011918062671 -0.0060704556158898354 0.00782572455208668
0.28793705798652497 -0.012906748021766685 0.01247859859077001
0.2775170170108965 -0.02862365027847946 0.018308694640126414
0.3142408685178232 0.010304311874729695 -0.010486603501180995
0.3190503358699535 0.002387829118960059 -0.002643947816142601
0.32139768463473334 0.0007940242315390714 -0.0004028403350125609
0.3223297742699022 0.00017793849767052124 0.00046025990345924614
0.322760182127356 -4.411990900253304e-05 0.0009892744855498276
0.32304993849224745 -0.00020431389425732668 0.001572323542265556
0.323205310896047 -0.00045118445319580465 0.0023560222876865735
0.3229308282029384 -0.0009348811800911328 0.003523044935077959
0.32162463777199957 -0.0019881029717363817 0.005383807421964965
0.318396392937108 -0.0037352608992612126 0.008161746055666238
0.3101736647617812 -0.010206428613752963 0.013940511101431274
0.35 0.0 0.0
0.35 0.0 0.0
0.35 0.0 0.0
0.35 0.0 0.0
0.35 0.0 0.0
0.35 0.0 0.0
0.35 0.0 0.0
0.35 0.0 0.0
0.35 0.0 0.0
0.35 0.0 0.0
0.35 0.0 0.0
0.0 0.0 0.0
0.0 0.0 0.0
0.0 0.0 0.0
0.0 0.0 0.0
0.0 0.0 0.0
0.0 0.0 0.0
0.0 0.0 0.0
0.0 0.0 0.0
0.0 0.0 0.0
0.0 0.0 0.0
0.0 0.0 0.0
0.042077051010601677 0.010121984814214297 0.007976751227188312
0.03281212726954742 0.0036074966640383035 0.005183182557331609
0.02941469089418912 0.0019990005173053413 0.0035766519529367093
0.027999796945584646 0.0009585211040581588 0.002363875675817116
0.02761892146227552 0.00044569385038671665 0.001555166729532134