# vtk DataFile Version 3.0
Some data
ASCII
DATASET UNSTRUCTURED_GRID
POINTS 1331 float
0.0 0.0 0.0
0.1 0.0 0.0
0.2 0.0 0.0
0.30000000000000004 0.0 0.0
0.4 0.0 0.0
0.5 0.0 0.0
0.6000000000000001 0.0 0.0
0.7000000000000001 0.0 0.0
0.8 0.0 0.0
0.9 0.0 0.0
1.0 0.0 0.0
0.0 0.1 0.0
0.1 0.1 0.0
0.2 0.1 0.0
0.30000000000000004 0.1 0.0
0.4 0.1 0.0
0.5 0.1 0.0
0.6000000000000001 0.1 0.0
0.7000000000000001 0.1 0.0
0.8 0.1 0.0
0.9 0.1 0.0
1.0 0.1 0.0
0.0 0.2 0.0
0.1 0.2 0.0
0.2 0.2 0.0
0.30000000000000004 0.2 0.0
0.4 0.2 0.0
0.5 0.2 0.0
0.6000000000000001 0.2 0.0
0.7000000000000001 0.2 0.0
0.8 0.2 0.0
0.9 0.2 0.0
1.0 0.2 0.0
0.0 0.30000000000000004 0.0
0.1 0.30000000000000004 0.0
0.2 0.30000000000000004 0.0
0.30000000000000004 0.30000000000000004 0.0
0.4 0.30000000000000004 0.0
0.5 0.30000000000000004 0.0
0.6000000000000001 0.30000000000000004 0.0
0.7000000000000001 0.30000000000000004 0.0
0.8 0.30000000000000004 0.0
0.9 0.30000000000000004 0.0
1.0 0.30000000000000004 0.0
0.0 0.4 0.0
0.1 0.4 0.0
0.2 0.4 0.0
0.30000000000000004 0.4 0.0
0.4 0.4 0.0
0.5 0.4 0.0
0.6000000000000001 0.4 0.0
0.7000000000000001 0.4 0.0
0.8 0.4 0.0
0.9 0.4 0.0
1.0 0.4 0.0
0.0 0.5 0.0
0.1 0.5 0.0
0.2 0.5 0.0
0.30000000000000004 0.5 0.0
0.4 0.5 0.0
0.5 0.5 0.0
0.6000000000000001 0.5 0.0
0.7000000000000001 0.5 0.0
0.8 0.5 0.0
0.9 0.5 0.0
1.0 0.5 0.0
0.0 0.6000000000000001 0.0
0.1 0.6000000000000001 0.0
0.2 0.6000000000000001 0.0
0.30000000000000004 0.6000000000000001 0.0
0.4 0.6000000000000001 0.0
0.5 0.6000000000000001 0.0
0.6000000000000001 0.6000000000000001 0.0
0.7000000000000001 0.6000000000000001 0.0
0.8 0.6000000000000001 0.0
0.9 0.6000000000000001 0.0
1.0 0.6000000000000001 0.0
0.0 0.7000000000000001 0.0
0.1 0.7000000000000001 0.0
0.2 0.7000000000000001 0.0
0.30000000000000004 0.7000000000000001 0.0
0.4 0.7000000000000001 0.0
0.5 0.7000000000000001 0.0
0.6000000000000001 0.7000000000000001 0.0
0.7000000000000001 0.7000000000000001 0.0
0.8 0.7000000000000001 0.0
0.9 0.7000000000000001 0.0
1.0 0.7000000000000001 0.0
0.0 0.8 0.0
0.1 0.8 0.0
0.2 0.8 0.0
0.30000000000000004 0.8 0.0
0.4 0.8 0.0
0.5 0.8 0.0
0.6000000000000001 0.8 0.0
0.7000000000000001 0.8 0.0
0.8 0.8 0.0
0.9 0.8 0.0
1.0 0.8 0.0
0.0 0.9 0.0
0.1 0.9 0.0
0.2 0.9 0.0
0.30000000000000004 0.9 0.0
0.4 0.9 0.0
0.5 0.9 0.0
0.6000000000000001 0.9 0.0
0.7000000000000001 0.9 0.0
0.8 0.9 0.0
0.9 0.9 0.0
1.0 0.9 0.0
0.0 1.0 0.0
0.1 1.0 0.0
0.2 1.0 0.0
0.30000000000000004 1.0 0.0
0.4 1.0 0.0
0.5 1.0 0.0
0.6000000000000001 1.0 0.0
0.7000000000000001 1.0 0.0
0.8 1.0 0.0
0.9 1.0 0.0
1.0 1.0 0.0
0.0 0.0 0.1
0.1 0.0 0.1
0.2 0.0 0.1
0.30000000000000004 0.0 0.1
0.4 0.0 0.1
0.5 0.0 0.1
0.6000000000000001 0.0 0.1
0.7000000000000001 0.0 0.1
0.8 0.0 0.1
0.9 0.0 0.1
1.0 0.0 0.1
0.0 0.1 0.1
0.1 0.1 0.1
0.2 0.1 0.1
0.30000000000000004 0.1 0.1
0.4 0.1 0.1
0.5 0.1 0.1
0.6000000000000001 0.1 0.1
0.7000000000000001 0.1 0.1
0.8 0.1 0.1
0.9 0.1 0.1
1.0 0.1 0.1
0.0 0.2 0.1
0.1 0.2 0.1
0.2 0.2 0.1
0.30000000000000004 0.2 0.1
0.4 0.2 0.1
0.5 0.2 0.1
0.6000000000000001 0.2 0.1
0.7000000000000001 0.2 0.1
0.8 0.2 0.1
0.9 0.2 0.1
1.0 0.2 0.1
0.0 0.30000000000000004 0.1
0.1 0.30000000000000004 0.1
0.2 0.30000000000000004 0.1
0.30000000000000004 0.30000000000000004 0.1
0.4 0.30000000000000004 0.1
0.5 0.30000000000000004 0.1
0.6000000000000001 0.30000000000000004 0.1
0.7000000000000001 0.30000000000000004 0.1
0.8 0.30000000000000004 0.1
0.9 0.30000000000000004 0.1
1.0 0.30000000000000004 0.1
0.0 0.4 0.1
0.1 0.4 0.1
0.2 0.4 0.1
0.30000000000000004 0.4 0.1
0.4 0.4 0.1
0.5 0.4 0.1
0.6000000000000001 0.4 0.1
0.7000000000000001 0.4 0.1
0.8 0.4 0.1
0.9 0.4 0.1
1.0 0.4 0.1
0.0 0.5 0.1
0.1 0.5 0.1
0.2 0.5 0.1
0.30000000000000004 0.5 0.1
0.4 0.5 0.1
0.5 0.5 0.1
0.6000000000000001 0.5 0.1
0.7000000000000001 0.5 0.1
0.8 0.5 0.1
0.9 0.5 0.1
1.0 0.5 0.1
0.0 0.6000000000000001 0.1
0.1 0.6000000000000001 0.1
0.2 0.6000000000000001 0.1
0.30000000000000004 0.6000000000000001 0.1
0.4 0.6000000000000001 0.1
0.5 0.6000000000000001 0.1
0.6000000000000001 0.6000000000000001 0.1
0.7000000000000001 0.6000000000000001 0.1
0.8 0.6000000000000001 0.1
0.9 0.6000000000000001 0.1
1.0 0.6000000000000001 0.1
0.0 0.7000000000000001 0.1
0.1 0.7000000000000001 0.1
0.2 0.7000000000000001 0.1
0.30000000000000004 0.7000000000000001 0.1
0.4 0.7000000000000001 0.1
0.5 0.7000000000000001 0.1
0.6000000000000001 0.7000000000000001 0.1
0.7000000000000001 0.7000000000000001 0.1
0.8 0.7000000000000001 0.1
0.9 0.7000000000000001 0.1
1.0 0.7000000000000001 0.1
0.0 0.8 0.1
0.1 0.8 0.1
0.2 0.8 0.1
0.30000000000000004 0.8 0.1
0.4 0.8 0.1
0.5 0.8 0.1
0.6000000000000001 0.8 0.1
0.7000000000000001 0.8 0.1
0.8 0.8 0.1
0.9 0.8 0.1
1.0 0.8 0.1
0.0 0.9 0.1
0.1 0.9 0.1
0.2 0.9 0.1
0.30000000000000004 0.9 0.1
0.4 0.9 0.1
0.5 0.9 0.1
0.6000000000000001 0.9 0.1
0.7000000000000001 0.9 0.1
0.8 0.9 0.1
0.9 0.9 0.1
1.0 0.9 0.1
0.0 1.0 0.1
0.1 1.0 0.1
0.2 1.0 0.1
0.30000000000000004 1.0 0.1
0.4 1.0 0.1
0.5 1.0 0.1
0.6000000000000001 1.0 0.1
0.7000000000000001 1.0 0.1
0.8 1.0 0.1
0.9 1.0 0.1
1.0 1.0 0.1
0.0 0.0 0.2
0.1 0.0 0.2
0.2 0.0 0.2
0.30000000000000004 0.0 0.2
0.4 0.0 0.2
0.5 0.0 0.2
0.6000000000000001 0.0 0.2
0.7000000000000001 0.0 0.2
0.8 0.0 0.2
0.9 0.0 0.2
1.0 0.0 0.2
0.0 0.1 0.2
0.1 0.1 0.2
0.2 0.1 0.2
0.30000000000000004 0.1 0.2
0.4 0.1 0.2
0.5 0.1 0.2
0.6000000000000001 0.1 0.2
0.7000000000000001 0.1 0.2
0.8 0.1 0.2
0.9 0.1 0.2
1.0 0.1 0.2
0.0 0.2 0.2
0.1 0.2 0.2
0.2 0.2 0.2
0.30000000000000004 0.2 0.2
0.4 0.2 0.2
0.5 0.2 0.2
0.6000000000000001 0.2 0.2
0.7000000000000001 0.2 0.2
0.8 0.2 0.2
0.9 0.2 0.2
1.0 0.2 0.2
0.0 0.30000000000000004 0.2
0.1 0.30000000000000004 0.2
0.2 0.30000000000000004 0.2
0.30000000000000004 0.30000000000000004 0.2
0.4 0.30000000000000004 0.2
0.5 0.30000000000000004 0.2
0.6000000000000001 0.30000000000000004 0.2
0.7000000000000001 0.30000000000000004 0.2
0.8 0.30000000000000004 0.2
0.9 0.30000000000000004 0.2
1.0 0.30000000000000004 0.2
0.0 0.4 0.2
0.1 0.4 0.2
0.2 0.4 0.2
0.30000000000000004 0.4 0.2
0.4 0.4 0.2
0.5 0.4 0.2
0.6000000000000001 0.4 0.2
0.7000000000000001 0.4 0.2
0.8 0.4 0.2
0.9 0.4 0.2
1.0 0.4 0.2
0.0 0.5 0.2
0.1 0.5 0.2
0.2 0.5 0.2
0.30000000000000004 0.5 0.2
0.4 0.5 0.2
0.5 0.5 0.2
0.6000000000000001 0.5 0.2
0.7000000000000001 0.5 0.2
0.8 0.5 0.2
0.9 0.5 0.2
1.0 0.5 0.2
0.0 0.6000000000000001 0.2
0.1 0.6000000000000001 0.2
0.2 0.6000000000000001 0.2
0.30000000000000004 0.6000000000000001 0.2
0.4 0.6000000000000001 0.2
0.5 0.6000000000000001 0.2
0.6000000000000001 0.6000000000000001 0.2
0.7000000000000001 0.6000000000000001 0.2
0.8 0.6000000000000001 0.2
0.9 0.6000000000000001 0.2
1.0 0.6000000000000001 0.2
0.0 0.7000000000000001 0.2
0.1 0.7000000000000001 0.2
0.2 0.7000000000000001 0.2
0.30000000000000004 0.7000000000000001 0.2
0.4 0.7000000000000001 0.2
0.5 0.7000000000000001 0.2
0.6000000000000001 0.7000000000000001 0.2
0.7000000000000001 0.7000000000000001 0.2
0.8 0.7000000000000001 0.2
0.9 0.7000000000000001 0.2
1.0 0.7000000000000001 0.2
0.0 0.8 0.2
0.1 0.8 0.2
0.2 0.8 0.2
0.30000000000000004 0.8 0.2
0.4 0.8 0.2
0.5 0.8 0.2
0.6000000000000001 0.8 0.2
0.7000000000000001 0.8 0.2
0.8 0.8 0.2
0.9 0.8 0.2
1.0 0.8 0.2
0.0 0.9 0.2
0.1 0.9 0.2
0.2 0.9 0.2
0.30000000000000004 0.9 0.2
0.4 0.9 0.2
0.5 0.9 0.2
0.6000000000000001 0.9 0.2
0.7000000000000001 0.9 0.2
0.8 0.9 0.2
0.9 0.9 0.2
1.0 0.9 0.2
0.0 1.0 0.2
0.1 1.0 0.2
0.2 1.0 0.2
0.30000000000000004 1.0 0.2
0.4 1.0 0.2
0.5 1.0 0.2
0.6000000000000001 1.0 0.2
0.7000000000000001 1.0 0.2
0.8 1.0 0.2
0.9 1.0 0.2
1.0 1.0 0.2
0.0 0.0 0.30000000000000004
0.1 0.0 0.30000000000000004
0.2 0.0 0.30000000000000004
0.30000000000000004 0.0 0.30000000000000004
0.4 0.0 0.30000000000000004
0.5 0.0 0.30000000000000004
0.6000000000000001 0.0 0.30000000000000004
0.7000000000000001 0.0 0.30000000000000004
0.8 0.0 0.30000000000000004
0.9 0.0 0.30000000000000004
1.0 0.0 0.30000000000000004
0.0 0.1 0.30000000000000004
0.1 0.1 0.30000000000000004
0.2 0.1 0.30000000000000004
0.30000000000000004 0.1 0.30000000000000004
0.4 0.1 0.30000000000000004
0.5 0.1 0.30000000000000004
0.6000000000000001 0.1 0.30000000000000004
0.7000000000000001 0.1 0.30000000000000004
0.8 0.1 0.30000000000000004
0.9 0.1 0.30000000000000004
1.0 0.1 0.30000000000000004
0.0 0.2 0.30000000000000004
0.1 0.2 0.30000000000000004
0.2 0.2 0.30000000000000004
0.30000000000000004 0.2 0.30000000000000004
0.4 0.2 0.30000000000000004
0.5 0.2 0.30000000000000004
0.6000000000000001 0.2 0.30000000000000004
0.7000000000000001 0.2 0.30000000000000004
0.8 0.2 0.30000000000000004
0.9 0.2 0.30000000000000004
1.0 0.2 0.30000000000000004
0.0 0.30000000000000004 0.30000000000000004
0.1 0.30000000000000004 0.30000000000000004
0.2 0.30000000000000004 0.30000000000000004
0.30000000000000004 0.30000000000000004 0.30000000000000004
0.4 0.30000000000000004 0.30000000000000004
0.5 0.30000000000000004 0.30000000000000004
0.6000000000000001 0.30000000000000004 0.30000000000000004
0.7000000000000001 0.30000000000000004 0.30000000000000004
0.8 0.30000000000000004 0.30000000000000004
0.9 0.30000000000000004 0.30000000000000004
1.0 0.30000000000000004 0.30000000000000004
0.0 0.4 0.30000000000000004
0.1 0.4 0.30000000000000004
0.2 0.4 0.30000000000000004
0.30000000000000004 0.4 0.30000000000000004
0.4 0.4 0.30000000000000004
0.5 0.4 0.30000000000000004
0.6000000000000001 0.4 0.30000000000000004
0.7000000000000001 0.4 0.30000000000000004
0.8 0.4 0.30000000000000004
0.9 0.4 0.30000000000000004
1.0 0.4 0.30000000000000004
0.0 0.5 0.30000000000000004
0.1 0.5 0.30000000000000004
0.2 0.5 0.30000000000000004
0.30000000000000004 0.5 0.30000000000000004
0.4 0.5 0.30000000000000004
0.5 0.5 0.30000000000000004
0.6000000000000001 0.5 0.30000000000000004
0.7000000000000001 0.5 0.30000000000000004
0.8 0.5 0.30000000000000004
0.9 0.5 0.30000000000000004
1.0 0.5 0.30000000000000004
0.0 0.6000000000000001 0.30000000000000004
0.1 0.6000000000000001 0.30000000000000004
0.2 0.6000000000000001 0.30000000000000004
0.30000000000000004 0.6000000000000001 0.30000000000000004
[...]
POINT_DATA 1331
VECTORS Disp float
0.0 0.0 0.0
0.0 0.0 0.0
0.0 0.0 0.0
0.0 0.0 0.0
0.0 0.0 0.0
0.0 0.0 0.0
0.0 0.0 0.0
0.0 0.0 0.0
0.0 0.0 0.0
0.0 0.0 0.0
0.0 0.0 0.0
0.04326601879322156 0.013537545657447955 0.0466325971514087
0.034728321887099664 0.006158120278311072 0.022142507507047434
0.0321828244702114 0.0034632634770586997 0.014697844790239037
0.03256268263422058 0.0020926453205823404 0.010941572864321753
0.034111670658926216 0.0014807719399056365 0.008495497311832719
0.03557410742800055 0.0012125720493149667 0.00653392150466236
0.03636545252498122 0.0010665912821518446 0.004891186450595544
0.036433820322153955 0.0009071092106324215 0.003569619993287892
0.03611219182503027 0.00040176424650818115 0.0022248354326543044
0.03604926744555718 0.0005284087580160026 -0.002050723940191908
0.030835349621920884 -0.005860593440947876 -0.036841157223704915
0.0886488766782897 0.03802029052916841 0.05759381344392603
0.07653494777460822 0.01683325576112828 0.034841400674193265
0.07320950078737996 0.008561906400630067 0.021608420483963497
0.07392460859476989 0.004699324309058809 0.0157545353200694
0.07595929767172832 0.00303727693405665 0.012103354079438309
0.07789878068740935 0.0023448716087394197 0.00956439611241348
0.07914043761162258 0.0020150548248227423 0.007664858314504334
0.07956346117277363 0.0015491879833334152 0.006027020047575342
0.07945231931941546 0.000335230713598117 0.0039017227881088194
0.07930752948974702 -0.0016003846238653826 -0.005691236384186376
0.06964874595929069 -0.01960457568888544 -0.03553288198158885
0.13992619055310526 0.05626171652973551 0.05194499478469714
0.12632594561332797 0.02498368161714164 0.035218879348121464
0.12287083568468603 0.011657486085390056 0.023369100732669977
0.12383542148164244 0.005923207723443049 0.017181518195034846
0.1262087616688616 0.003468222708779207 0.013602298441760908
0.1286996160333134 0.002446943361132412 0.011374450908190187
0.13081244390039967 0.001881378511176526 0.009912508236465112
0.132459753101361 0.00090517103966129 0.008696111793490093
0.1338843737395083 -0.0014955211471817196 0.006216506595568239
0.13475663734659285 -0.007726241096592126 -0.001181669359879818
0.12312011343195334 -0.036007307659132376 -0.019688004029516287
0.19727959844776533 0.06340619581520437 0.03784173227054917
0.18309759718172677 0.027012137200904777 0.0278193187780766
0.18048400359123898 0.011743141502976739 0.020703892221098818
0.18191948257010115 0.005360145042005042 0.016191100575760987
0.18455027540292654 0.002671430250520598 0.01355389278890419
0.187373567182458 0.0015237291993623954 0.012114948544980325
0.19003053006927706 0.0006784763463068676 0.01144302123978378
0.19243462269086728 -0.001001246978695183 0.011083314765975827
0.19451430262180452 -0.005181178160710681 0.010143912963888672
0.19498359450313124 -0.015809235426290924 0.007081600888150866
0.1821895237586604 -0.050835272480036914 0.00031449886707089303
0.2575770298848756 0.06065688233649307 0.01949412611043263
0.24380416471986124 0.023106282198598962 0.017084162454795583
0.2427463313973287 0.009159368210200048 0.015315819129776228
0.24458313147453747 0.003414760669537861 0.013547743871422224
0.24718994932911878 0.0010647117759852549 0.012468762110870796
0.24999999999999944 -2.4792395668105158e-17 0.012103447259657405
0.2528100506708803 -0.001064711775985199 0.012468762110870911
0.2554168685254617 -0.0034147606695378485 0.013547743871422373
0.2572536686026707 -0.009159368210200008 0.015315819129776264
0.2561958352801381 -0.023106282198598973 0.01708416245479566
0.24242297011512381 -0.06065688233649316 0.01949412611043276
0.31781047624133907 0.05083527248003671 0.00031449886707076466
0.3050164054968683 0.015809235426290865 0.007081600888150729
0.3054856973781951 0.00518117816071077 0.01014391296388852
0.30756537730913225 0.0010012469786952803 0.011083314765975733
0.3099694699307224 -0.0006784763463067876 0.011443021239783713
0.3126264328175413 -0.00152372919936245 0.01211494854498032
0.3154497245970729 -0.0026714302505205937 0.013553892788904152
0.31808051742989824 -0.005360145042005092 0.016191100575760946
0.3195159964087604 -0.011743141502976786 0.020703892221098842
0.31690240281827264 -0.027012137200904715 0.027819318778076668
0.30272040155223395 -0.06340619581520436 0.03784173227054912
0.3768798865680462 0.036007307659132126 -0.019688004029516457
0.3652433626534068 0.007726241096592082 -0.001181669359879878
0.3661156262604913 0.0014955211471818118 0.006216506595568168
0.36754024689863857 -0.0009051710396611825 0.008696111793489922
0.3691875560995998 -0.001881378511176449 0.00991250823646505
0.371300383966686 -0.0024469433611324313 0.011374450908190177
0.37379123833113787 -0.00346822270877926 0.01360229844176088
0.376164578518357 -0.005923207723443159 0.01718151819503481
0.3771291643153134 -0.011657486085390132 0.02336910073267001
0.37367405438667156 -0.0249836816171415 0.035218879348121575
0.36007380944689427 -0.05626171652973543 0.05194499478469711
0.4303512540407087 0.019604575688885323 -0.035532881981588944
0.4206924705102523 0.0016003846238653555 -0.005691236384186436
0.420547680680584 -0.000335230713597996 0.003901722788108845
0.4204365388272258 -0.0015491879833333753 0.006027020047575386
0.42085956238837696 -0.002015054824822713 0.007664858314504438
0.42210121931259037 -0.0023448716087394335 0.009564396112413519
0.42404070232827135 -0.0030372769340567115 0.012103354079438347
0.4260753914052297 -0.004699324309058849 0.01575453532006945
0.42679049921261963 -0.008561906400630098 0.021608420483963605
0.4234650522253916 -0.01683325576112819 0.034841400674193425
0.41135112332171 -0.03802029052916844 0.05759381344392628
0.46916465037807864 0.005860593440947751 -0.036841157223704964
0.4639507325544424 -0.0005284087580160239 -0.0020507239401919334
0.4638878081749693 -0.00040176424650811414 0.002224835432654261
0.46356617967784564 -0.0009071092106324206 0.0035696199932879367
0.4636345474750184 -0.0010665912821518652 0.004891186450595579
0.4644258925719992 -0.0012125720493149194 0.006533921504662392
0.46588832934107344 -0.0014807719399056764 0.00849549731183271
0.46743731736577904 -0.0020926453205823204 0.010941572864321744
0.4678171755297882 -0.003463263477058711 0.014697844790239141
0.4652716781129 -0.006158120278311017 0.02214250750704761
0.4567339812067782 -0.013537545657448014 0.046632597151409196
0.49999999999999994 0.0 0.0
0.49999999999999994 0.0 0.0
0.49999999999999994 0.0 0.0
0.49999999999999994 0.0 0.0
0.49999999999999994 0.0 0.0
0.49999999999999994 0.0 0.0
0.49999999999999994 0.0 0.0
0.49999999999999994 0.0 0.0
0.49999999999999994 0.0 0.0
0.49999999999999994 0.0 0.0
0.49999999999999994 0.0 0.0
0.0 0.0 0.0
0.0 0.0 0.0
0.0 0.0 0.0
0.0 0.0 0.0
0.0 0.0 0.0
0.0 0.0 0.0
0.0 0.0 0.0
0.0 0.0 0.0
0.0 0.0 0.0
0.0 0.0 0.0
0.0 0.0 0.0
0.050692667467763255 0.011305833851127541 0.03207732530337462
0.04286400998374836 0.004121097622903293 0.01591204708883645
0.03993069952772726 0.0021584870974723455 0.010375460464549234
0.039055302561091916 0.0011211726574312613 0.007380055612665263
0.039300649580789986 0.0006661849472123315 0.005578893432518601
0.039911047752482755 0.0004265609428404421 0.0043463128548632815
0.0405414570989618 0.0002452496573932238 0.0034303366460913458
0.041216190052665684 -1.2047942552811064e-05 0.002678410244157753
0.042299623976148344 -0.0006433554273714415 0.0017543001822414436
0.0443927184165659 -0.0017135836015564866 -0.0020130069511378715
0.04411389791089939 -0.010066444260818087 -0.025817336337789425
0.09974598356852442 0.034841976813358454 0.04071482195928215
0.08654380863500202 0.014787715467325711 0.025684665190191476
0.08122961203690776 0.00733430035498295 0.015914236681131677
0.07978534997237455 0.0038635511133883367 0.011486218230804908
0.08019559313005759 0.002174779933495073 0.008852276345240688
0.08132795290388813 0.0012703293960408288 0.0072026518769113135
0.08263919384226145 0.0005707776020387911 0.006069223641818535
0.08410865410732803 -0.00049309381948851 0.0050334861754846045
0.08616809749351381 -0.0026384097486066875 0.0031932746969409163
0.08880555583892612 -0.007483327580531142 -0.004703327330558266
0.08517925271034082 -0.02798222572238054 -0.025428301406279927
0.15137402673808226 0.05543203980836767 0.03785604941950679
0.13601038779696162 0.025427600020902733 0.026525890451393218
0.12992771457562793 0.012087469376122885 0.017906370855609487
0.12872645140666797 0.0060692756964178226 0.013172386515794478
0.12967923164662976 0.003115890746789465 0.010560621343916997
0.13149574624018293 0.0015322868753494725 0.009056519007744786
0.1335820164685696 0.00023384404105884332 0.008125091117449355
0.13577463045027546 -0.0018399488307077416 0.007186934150654523
0.1381776633002212 -0.006020124365186442 0.004807372574010213
0.13984753314916537 -0.015965950488299914 -0.0011201451166446834
0.13242465188432756 -0.046328510333897996 -0.014328308295437296
0.20611152854104717 0.0664600521514183 0.02801639594068645
0.19065678691628496 0.03080908423540062 0.02139177343200703
0.1853983169333768 0.014167978963115523 0.01614537179917847
0.18504190096719458 0.006662691162664923 0.012829368526164592
0.18659021625049718 0.003014239994131167 0.01094578765880219
0.18887600202171198 0.0010120789347020235 0.009977308068129732
0.19136079804667047 -0.0007928254490773846 0.009526841224157524
0.1937473975542132 -0.0037903610144998305 0.00910563212351609
0.195609459869634 -0.009974381741138794 0.0080005012139201
0.1948931177550946 -0.024241495274647758 0.005498446388612652
0.18360997734794085 -0.0603759264251092 0.0001488365216518264
0.26220390888284734 0.06746848571228833 0.014319528725509924
0.2480883978871951 0.02985230668726103 0.013334552705213176
0.24477692776453328 0.013148195202759146 0.012091615290322658
0.24551178122241518 0.005679632106519268 0.011017734922733148
0.24754071646220716 0.002070676806792996 0.010347216189977582
0.24999999999999944 -1.3647516597260161e-17 0.010114967612179181
0.2524592835377919 -0.0020706768067929237 0.010347216189977632
0.25448821877758393 -0.005679632106519178 0.011017734922733242
0.2552230722354658 -0.013148195202759146 0.012091615290322724
0.2519116021128041 -0.02985230668726098 0.013334552705213245
0.23779609111715175 -0.06746848571228835 0.014319528725509945
0.31639002265205846 0.060375926425109014 0.00014883652165177045
0.3051068822449048 0.02424149527464776 0.005498446388612551
0.30439054013036543 0.009974381741138835 0.008000501213919984
0.3062526024457862 0.0037903610144998955 0.009105632123515981
0.30863920195332895 0.0007928254490774295 0.009526841224157485
0.3111239979782875 -0.0010120789347020454 0.009977308068129704
0.31340978374950224 -0.003014239994131118 0.01094578765880223
0.3149580990328048 -0.0066626911626648955 0.012829368526164625
0.3146016830666225 -0.014167978963115566 0.016145371799178528
0.3093432130837144 -0.030809084235400627 0.021391773432007072
0.2938884714589522 -0.06646005215141826 0.02801639594068647
0.36757534811567194 0.04632851033389779 -0.014328308295437416
0.36015246685083413 0.0159659504882999 -0.0011201451166447224
0.3618223366997783 0.006020124365186508 0.004807372574010203
0.3642253695497239 0.001839948830707777 0.0071869341506544384
0.36641798353142974 -0.00023384404105890124 0.008125091117449326
0.36850425375981655 -0.0015322868753495122 0.009056519007744764
0.3703207683533697 -0.00311589074678943 0.010560621343917033
0.3712735485933314 -0.006069275696417787 0.013172386515794459
0.3700722854243714 -0.012087469376122945 0.017906370855609494
0.36398961220303777 -0.02542760002090278 0.026525890451393256
0.34862597326191724 -0.05543203980836777 0.037856049419506856
0.4148207472896586 0.027982225722380398 -0.025428301406280017
0.41119444416107337 0.007483327580531142 -0.004703327330558338
0.4138319025064857 0.0026384097486067443 0.0031932746969409133
0.4158913458926715 0.0004930938194885366 0.005033486175484599
0.4173608061577381 -0.0005707776020388291 0.006069223641818557
0.4186720470961114 -0.0012703293960408956 0.0072026518769113005
0.419804406869942 -0.0021747799334950633 0.008852276345240695
0.4202146500276251 -0.003863551113388337 0.011486218230804899
0.4187703879630919 -0.007334300354983046 0.015914236681131694
0.4134561913649976 -0.014787715467325796 0.025684665190191608
0.40025401643147523 -0.03484197681335868 0.04071482195928243
0.4558861020891003 0.010066444260818048 -0.025817336337789473
0.45560728158343367 0.0017135836015564647 -0.0020130069511378745
0.4577003760238513 0.0006433554273714834 0.0017543001822414497
0.4587838099473339 1.2047942552826734e-05 0.0026784102441577986
0.4594585429010378 -0.00024524965739322325 0.003430336646091315
0.46008895224751684 -0.00042656094284047066 0.004346312854863276
0.4606993504192097 -0.0006661849472123613 0.005578893432518591
0.46094469743890776 -0.0011211726574312686 0.007380055612665278
0.46006930047227235 -0.0021584870974724044 0.010375460464549291
0.4571359900162512 -0.004121097622903318 0.015912047088836603
0.4493073325322362 -0.01130583385112761 0.03207732530337498
0.49999999999999994 0.0 0.0
0.49999999999999994 0.0 0.0
0.49999999999999994 0.0 0.0
0.49999999999999994 0.0 0.0
0.49999999999999994 0.0 0.0
0.49999999999999994 0.0 0.0
0.49999999999999994 0.0 0.0
0.49999999999999994 0.0 0.0
0.49999999999999994 0.0 0.0
0.49999999999999994 0.0 0.0
0.49999999999999994 0.0 0.0
0.0 0.0 0.0
0.0 0.0 0.0
0.0 0.0 0.0
0.0 0.0 0.0
0.0 0.0 0.0
0.0 0.0 0.0
0.0 0.0 0.0
0.0 0.0 0.0
0.0 0.0 0.0
0.0 0.0 0.0
0.0 0.0 0.0
0.0565541911984318 0.011564388914379805 0.020804822925744672
0.04715909342306037 0.004168724954155425 0.011351691973735808
0.043685604734766174 0.002324844740937666 0.007630089526283888
0.042230877410765505 0.0011885936684994276 0.005316594829236697
0.041973491511666926 0.0006745368379163158 0.003925809845932299
0.04226217346565973 0.00037515709195253596 0.0030609167814143216
0.04283753956613101 0.0001272539338858245 0.002477209215141814
0.043736917876653354 -0.000248617396922269 0.0019903453558670486
0.04538046584229484 -0.0010866331574899723 0.0011802320072750497
0.04850052694544636 -0.002820926402432759 -0.001565979256043573
0.05173348071681635 -0.01089134105651855 -0.015827178238215903
0.10552093955093536 0.034166566956606574 0.0272378467475594
0.09173797244673192 0.015039994619114497 0.01819000212273835
0.08577602899390628 0.0074555395746010375 0.011581979304225616
0.08366736943174506 0.003810409503108691 0.008274046920088776
0.08352735329645179 0.001981461136416915 0.006320342151899156
0.08435361014784132 0.0009392090859912695 0.005168448129731692
0.08568176817217 7.636043276160507e-05 0.004411034163262819
0.08744800768701548 -0.0012336103791330928 0.0036330113430571385
0.0899294986256242 -0.0038191195934433203 0.0020357033441279013
0.09308100786418337 -0.010144890686815754 -0.003557702752966739
0.09373977120279262 -0.02915599492134344 -0.015843684730542942
0.156098431203277 0.053655121867383866 0.026075371936443263
0.1410330155130711 0.025810871695000556 0.018893486774753675
0.13429709213318433 0.012474584415260987 0.013119700632309047
0.13227123595412094 0.00617001324075266 0.009633780079451398
0.13257807450336592 0.0029798397803186454 0.007729746742905141
0.13400768347190073 0.0011339214764649198 0.0066691032176023094
0.13598658523916202 -0.0004595214856210907 0.005998136744861246
0.1382689850458128 -0.002901912454336706 0.0051753293791545266
0.14070705895740912 -0.007709287361947743 0.0031300616290805766
0.14207411974075476 -0.019226518024048973 -0.0009937859378672837
0.13835772007134045 -0.046824299387344614 -0.008870417735049508
0.2091209191271018 0.06466779672672936 0.019630590162315453
0.19461370048659674 0.031852063870541875 0.01542155999158026
0.18856635662506221 0.015176536580371373 0.011799910931242932
0.18732937106944159 0.007200504921975231 0.009445218497547266
0.18829252117444864 0.003152791583533899 0.008141666823732074
0.19021902582527178 0.0007652737570161684 0.007481998513150332
0.19248795630915502 -0.001437011001340002 0.007119354930617516
0.19467269753012892 -0.004927807762638036 0.006629874463946106
0.19614847950915762 -0.011838555206888944 0.005611635617081413
0.1947468030695449 -0.027247519330953165 0.003962028773694294
0.1863334834869815 -0.05997253704940679 0.0005193807714252443
0.2625431960320992 0.06637698767931707 0.010138813417498081
0.25027669880026393 0.03201520435621297 0.00970478042762701
0.24614182223472175 0.014761872834525196 0.008763222696839365
0.2461801308646858 0.0066278992225150095 0.00812298766465254
0.24780754848172337 0.002502319870182538 0.007776127568471951
0.2499999999999997 -1.2746432314865262e-17 0.00765833487342181
0.252192451518276 -0.002502319870182549 0.0077761275684719465
0.2538198691353137 -0.006627899222514986 0.008122987664652631
0.25385817776527775 -0.014761872834525153 0.008763222696839445
0.24972330119973554 -0.032015204356213016 0.009704780427627107
0.2374568039679002 -0.06637698767931724 0.010138813417498078
0.31366651651301775 0.05997253704940667 0.0005193807714252555
0.3052531969304544 0.02724751933095315 0.00396202877369424
0.3038515204908417 0.01183855520688898 0.005611635617081324
0.3053273024698704 0.004927807762638146 0.006629874463946039
0.30751204369084406 0.001437011001339956 0.007119354930617486
0.3097809741747273 -0.000765273757016214 0.007481998513150305
0.3117074788255505 -0.003152791583533895 0.008141666823732178
0.3126706289305576 -0.0072005049219752235 0.009445218497547333
0.311433643374937 -0.015176536580371375 0.011799910931242994
0.30538629951340257 -0.031852063870541875 0.015421559991580293
0.29087908087289754 -0.06466779672672936 0.019630590162315466
0.36164227992865894 0.04682429938734441 -0.00887041773504959
0.35792588025924466 0.019226518024048945 -0.0009937859378673182
0.3592929410425903 0.007709287361947736 0.0031300616290805836
0.3617310149541867 0.002901912454336808 0.005175329379154514
0.3640134147608374 0.0004595214856210266 0.005998136744861252
0.36599231652809855 -0.001133921476464985 0.006669103217602311
0.3674219254966334 -0.0029798397803186623 0.007729746742905192
0.36772876404587845 -0.006170013240752692 0.009633780079451409
0.3657029078668151 -0.012474584415261059 0.013119700632309087
0.35896698448692843 -0.02581087169500065 0.01889348677475369
0.34390156879672257 -0.053655121867383915 0.026075371936443353
0.4062602287972069 0.02915599492134326 -0.015843684730543015
0.40691899213581617 0.010144890686815724 -0.003557702752966794
0.4100705013743753 0.003819119593443298 0.002035703344127896
0.41255199231298406 0.0012336103791331708 0.003633011343057174
0.41431823182782945 -7.636043276165459e-05 0.004411034163262826
0.4156463898521582 -0.0009392090859913487 0.0051684481297316655
0.4164726467035477 -0.0019814611364169553 0.006320342151899132
0.4163326305682544 -0.0038104095031087407 0.00827404692008875
0.4142239710060932 -0.007455539574601131 0.011581979304225606
0.4082620275532675 -0.015039994619114603 0.018190002122738448
0.3944790604490641 -0.034166566956606616 0.027237846747559618
0.4482665192831833 0.010891341056518426 -0.015827178238216007
0.4514994730545532 0.0028209264024327443 -0.0015659792560435899
0.4546195341577047 0.001086633157489933 0.0011802320072750588
0.45626308212334615 0.0002486173969223028 0.00199034535586708
0.45716246043386854 -0.00012725393388583785 0.0024772092151417414
0.45773782653433975 -0.00037515709195258247 0.0030609167814143025
0.45802650848833254 -0.0006745368379163425 0.003925809845932255
0.4577691225892339 -0.0011885936684994452 0.00531659482923674
0.4563143952652332 -0.0023248447409377074 0.007630089526283919
0.452840906576939 -0.004168724954155434 0.011351691973735875
0.4434458088015676 -0.01156438891437981 0.020804822925744874
0.49999999999999994 0.0 0.0
0.49999999999999994 0.0 0.0
0.49999999999999994 0.0 0.0
0.49999999999999994 0.0 0.0
0.49999999999999994 0.0 0.0
0.49999999999999994 0.0 0.0
0.49999999999999994 0.0 0.0
0.49999999999999994 0.0 0.0
0.49999999999999994 0.0 0.0
0.49999999999999994 0.0 0.0
0.49999999999999994 0.0 0.0
0.0 0.0 0.0
0.0 0.0 0.0
0.0 0.0 0.0
0.0 0.0 0.0
0.0 0.0 0.0
0.0 0.0 0.0
0.0 0.0 0.0
0.0 0.0 0.0
0.0 0.0 0.0
0.0 0.0 0.0