# vtk DataFile Version 3.0
Some data
ASCII
DATASET UNSTRUCTURED_GRID
POINTS 1331 float
0.0 0.0 0.0
0.1 0.0 0.0
0.2 0.0 0.0
0.30000000000000004 0.0 0.0
0.4 0.0 0.0
0.5 0.0 0.0
0.6000000000000001 0.0 0.0
0.7000000000000001 0.0 0.0
0.8 0.0 0.0
0.9 0.0 0.0
1.0 0.0 0.0
0.0 0.1 0.0
0.1 0.1 0.0
0.2 0.1 0.0
0.30000000000000004 0.1 0.0
0.4 0.1 0.0
0.5 0.1 0.0
0.6000000000000001 0.1 0.0
0.7000000000000001 0.1 0.0
0.8 0.1 0.0
0.9 0.1 0.0
1.0 0.1 0.0
0.0 0.2 0.0
0.1 0.2 0.0
0.2 0.2 0.0
0.30000000000000004 0.2 0.0
0.4 0.2 0.0
0.5 0.2 0.0
0.6000000000000001 0.2 0.0
0.7000000000000001 0.2 0.0
0.8 0.2 0.0
0.9 0.2 0.0
1.0 0.2 0.0
0.0 0.30000000000000004 0.0
0.1 0.30000000000000004 0.0
0.2 0.30000000000000004 0.0
0.30000000000000004 0.30000000000000004 0.0
0.4 0.30000000000000004 0.0
0.5 0.30000000000000004 0.0
0.6000000000000001 0.30000000000000004 0.0
0.7000000000000001 0.30000000000000004 0.0
0.8 0.30000000000000004 0.0
0.9 0.30000000000000004 0.0
1.0 0.30000000000000004 0.0
0.0 0.4 0.0
0.1 0.4 0.0
0.2 0.4 0.0
0.30000000000000004 0.4 0.0
0.4 0.4 0.0
0.5 0.4 0.0
0.6000000000000001 0.4 0.0
0.7000000000000001 0.4 0.0
0.8 0.4 0.0
0.9 0.4 0.0
1.0 0.4 0.0
0.0 0.5 0.0
0.1 0.5 0.0
0.2 0.5 0.0
0.30000000000000004 0.5 0.0
0.4 0.5 0.0
0.5 0.5 0.0
0.6000000000000001 0.5 0.0
0.7000000000000001 0.5 0.0
0.8 0.5 0.0
0.9 0.5 0.0
1.0 0.5 0.0
0.0 0.6000000000000001 0.0
0.1 0.6000000000000001 0.0
0.2 0.6000000000000001 0.0
0.30000000000000004 0.6000000000000001 0.0
0.4 0.6000000000000001 0.0
0.5 0.6000000000000001 0.0
0.6000000000000001 0.6000000000000001 0.0
0.7000000000000001 0.6000000000000001 0.0
0.8 0.6000000000000001 0.0
0.9 0.6000000000000001 0.0
1.0 0.6000000000000001 0.0
0.0 0.7000000000000001 0.0
0.1 0.7000000000000001 0.0
0.2 0.7000000000000001 0.0
0.30000000000000004 0.7000000000000001 0.0
0.4 0.7000000000000001 0.0
0.5 0.7000000000000001 0.0
0.6000000000000001 0.7000000000000001 0.0
0.7000000000000001 0.7000000000000001 0.0
0.8 0.7000000000000001 0.0
0.9 0.7000000000000001 0.0
1.0 0.7000000000000001 0.0
0.0 0.8 0.0
0.1 0.8 0.0
0.2 0.8 0.0
0.30000000000000004 0.8 0.0
0.4 0.8 0.0
0.5 0.8 0.0
0.6000000000000001 0.8 0.0
0.7000000000000001 0.8 0.0
0.8 0.8 0.0
0.9 0.8 0.0
1.0 0.8 0.0
0.0 0.9 0.0
0.1 0.9 0.0
0.2 0.9 0.0
0.30000000000000004 0.9 0.0
0.4 0.9 0.0
0.5 0.9 0.0
0.6000000000000001 0.9 0.0
0.7000000000000001 0.9 0.0
0.8 0.9 0.0
0.9 0.9 0.0
1.0 0.9 0.0
0.0 1.0 0.0
0.1 1.0 0.0
0.2 1.0 0.0
0.30000000000000004 1.0 0.0
0.4 1.0 0.0
0.5 1.0 0.0
0.6000000000000001 1.0 0.0
0.7000000000000001 1.0 0.0
0.8 1.0 0.0
0.9 1.0 0.0
1.0 1.0 0.0
0.0 0.0 0.1
0.1 0.0 0.1
0.2 0.0 0.1
0.30000000000000004 0.0 0.1
0.4 0.0 0.1
0.5 0.0 0.1
0.6000000000000001 0.0 0.1
0.7000000000000001 0.0 0.1
0.8 0.0 0.1
0.9 0.0 0.1
1.0 0.0 0.1
0.0 0.1 0.1
0.1 0.1 0.1
0.2 0.1 0.1
0.30000000000000004 0.1 0.1
0.4 0.1 0.1
0.5 0.1 0.1
0.6000000000000001 0.1 0.1
0.7000000000000001 0.1 0.1
0.8 0.1 0.1
0.9 0.1 0.1
1.0 0.1 0.1
0.0 0.2 0.1
0.1 0.2 0.1
0.2 0.2 0.1
0.30000000000000004 0.2 0.1
0.4 0.2 0.1
0.5 0.2 0.1
0.6000000000000001 0.2 0.1
0.7000000000000001 0.2 0.1
0.8 0.2 0.1
0.9 0.2 0.1
1.0 0.2 0.1
0.0 0.30000000000000004 0.1
0.1 0.30000000000000004 0.1
0.2 0.30000000000000004 0.1
0.30000000000000004 0.30000000000000004 0.1
0.4 0.30000000000000004 0.1
0.5 0.30000000000000004 0.1
0.6000000000000001 0.30000000000000004 0.1
0.7000000000000001 0.30000000000000004 0.1
0.8 0.30000000000000004 0.1
0.9 0.30000000000000004 0.1
1.0 0.30000000000000004 0.1
0.0 0.4 0.1
0.1 0.4 0.1
0.2 0.4 0.1
0.30000000000000004 0.4 0.1
0.4 0.4 0.1
0.5 0.4 0.1
0.6000000000000001 0.4 0.1
0.7000000000000001 0.4 0.1
0.8 0.4 0.1
0.9 0.4 0.1
1.0 0.4 0.1
0.0 0.5 0.1
0.1 0.5 0.1
0.2 0.5 0.1
0.30000000000000004 0.5 0.1
0.4 0.5 0.1
0.5 0.5 0.1
0.6000000000000001 0.5 0.1
0.7000000000000001 0.5 0.1
0.8 0.5 0.1
0.9 0.5 0.1
1.0 0.5 0.1
0.0 0.6000000000000001 0.1
0.1 0.6000000000000001 0.1
0.2 0.6000000000000001 0.1
0.30000000000000004 0.6000000000000001 0.1
0.4 0.6000000000000001 0.1
0.5 0.6000000000000001 0.1
0.6000000000000001 0.6000000000000001 0.1
0.7000000000000001 0.6000000000000001 0.1
0.8 0.6000000000000001 0.1
0.9 0.6000000000000001 0.1
1.0 0.6000000000000001 0.1
0.0 0.7000000000000001 0.1
0.1 0.7000000000000001 0.1
0.2 0.7000000000000001 0.1
0.30000000000000004 0.7000000000000001 0.1
0.4 0.7000000000000001 0.1
0.5 0.7000000000000001 0.1
0.6000000000000001 0.7000000000000001 0.1
0.7000000000000001 0.7000000000000001 0.1
0.8 0.7000000000000001 0.1
0.9 0.7000000000000001 0.1
1.0 0.7000000000000001 0.1
0.0 0.8 0.1
0.1 0.8 0.1
0.2 0.8 0.1
0.30000000000000004 0.8 0.1
0.4 0.8 0.1
0.5 0.8 0.1
0.6000000000000001 0.8 0.1
0.7000000000000001 0.8 0.1
0.8 0.8 0.1
0.9 0.8 0.1
1.0 0.8 0.1
0.0 0.9 0.1
0.1 0.9 0.1
0.2 0.9 0.1
0.30000000000000004 0.9 0.1
0.4 0.9 0.1
0.5 0.9 0.1
0.6000000000000001 0.9 0.1
0.7000000000000001 0.9 0.1
0.8 0.9 0.1
0.9 0.9 0.1
1.0 0.9 0.1
0.0 1.0 0.1
0.1 1.0 0.1
0.2 1.0 0.1
0.30000000000000004 1.0 0.1
0.4 1.0 0.1
0.5 1.0 0.1
0.6000000000000001 1.0 0.1
0.7000000000000001 1.0 0.1
0.8 1.0 0.1
0.9 1.0 0.1
1.0 1.0 0.1
0.0 0.0 0.2
0.1 0.0 0.2
0.2 0.0 0.2
0.30000000000000004 0.0 0.2
0.4 0.0 0.2
0.5 0.0 0.2
0.6000000000000001 0.0 0.2
0.7000000000000001 0.0 0.2
0.8 0.0 0.2
0.9 0.0 0.2
1.0 0.0 0.2
0.0 0.1 0.2
0.1 0.1 0.2
0.2 0.1 0.2
0.30000000000000004 0.1 0.2
0.4 0.1 0.2
0.5 0.1 0.2
0.6000000000000001 0.1 0.2
0.7000000000000001 0.1 0.2
0.8 0.1 0.2
0.9 0.1 0.2
1.0 0.1 0.2
0.0 0.2 0.2
0.1 0.2 0.2
0.2 0.2 0.2
0.30000000000000004 0.2 0.2
0.4 0.2 0.2
0.5 0.2 0.2
0.6000000000000001 0.2 0.2
0.7000000000000001 0.2 0.2
0.8 0.2 0.2
0.9 0.2 0.2
1.0 0.2 0.2
0.0 0.30000000000000004 0.2
0.1 0.30000000000000004 0.2
0.2 0.30000000000000004 0.2
0.30000000000000004 0.30000000000000004 0.2
0.4 0.30000000000000004 0.2
0.5 0.30000000000000004 0.2
0.6000000000000001 0.30000000000000004 0.2
0.7000000000000001 0.30000000000000004 0.2
0.8 0.30000000000000004 0.2
0.9 0.30000000000000004 0.2
1.0 0.30000000000000004 0.2
0.0 0.4 0.2
0.1 0.4 0.2
0.2 0.4 0.2
0.30000000000000004 0.4 0.2
0.4 0.4 0.2
0.5 0.4 0.2
0.6000000000000001 0.4 0.2
0.7000000000000001 0.4 0.2
0.8 0.4 0.2
0.9 0.4 0.2
1.0 0.4 0.2
0.0 0.5 0.2
0.1 0.5 0.2
0.2 0.5 0.2
0.30000000000000004 0.5 0.2
0.4 0.5 0.2
0.5 0.5 0.2
0.6000000000000001 0.5 0.2
0.7000000000000001 0.5 0.2
0.8 0.5 0.2
0.9 0.5 0.2
1.0 0.5 0.2
0.0 0.6000000000000001 0.2
0.1 0.6000000000000001 0.2
0.2 0.6000000000000001 0.2
0.30000000000000004 0.6000000000000001 0.2
0.4 0.6000000000000001 0.2
0.5 0.6000000000000001 0.2
0.6000000000000001 0.6000000000000001 0.2
0.7000000000000001 0.6000000000000001 0.2
0.8 0.6000000000000001 0.2
0.9 0.6000000000000001 0.2
1.0 0.6000000000000001 0.2
0.0 0.7000000000000001 0.2
0.1 0.7000000000000001 0.2
0.2 0.7000000000000001 0.2
0.30000000000000004 0.7000000000000001 0.2
0.4 0.7000000000000001 0.2
0.5 0.7000000000000001 0.2
0.6000000000000001 0.7000000000000001 0.2
0.7000000000000001 0.7000000000000001 0.2
0.8 0.7000000000000001 0.2
0.9 0.7000000000000001 0.2
1.0 0.7000000000000001 0.2
0.0 0.8 0.2
0.1 0.8 0.2
0.2 0.8 0.2
0.30000000000000004 0.8 0.2
0.4 0.8 0.2
0.5 0.8 0.2
0.6000000000000001 0.8 0.2
0.7000000000000001 0.8 0.2
0.8 0.8 0.2
0.9 0.8 0.2
1.0 0.8 0.2
0.0 0.9 0.2
0.1 0.9 0.2
0.2 0.9 0.2
0.30000000000000004 0.9 0.2
0.4 0.9 0.2
0.5 0.9 0.2
0.6000000000000001 0.9 0.2
0.7000000000000001 0.9 0.2
0.8 0.9 0.2
0.9 0.9 0.2
1.0 0.9 0.2
0.0 1.0 0.2
0.1 1.0 0.2
0.2 1.0 0.2
0.30000000000000004 1.0 0.2
0.4 1.0 0.2
0.5 1.0 0.2
0.6000000000000001 1.0 0.2
0.7000000000000001 1.0 0.2
0.8 1.0 0.2
0.9 1.0 0.2
1.0 1.0 0.2
0.0 0.0 0.30000000000000004
0.1 0.0 0.30000000000000004
0.2 0.0 0.30000000000000004
0.30000000000000004 0.0 0.30000000000000004
0.4 0.0 0.30000000000000004
0.5 0.0 0.30000000000000004
0.6000000000000001 0.0 0.30000000000000004
0.7000000000000001 0.0 0.30000000000000004
0.8 0.0 0.30000000000000004
0.9 0.0 0.30000000000000004
1.0 0.0 0.30000000000000004
0.0 0.1 0.30000000000000004
0.1 0.1 0.30000000000000004
0.2 0.1 0.30000000000000004
0.30000000000000004 0.1 0.30000000000000004
0.4 0.1 0.30000000000000004
0.5 0.1 0.30000000000000004
0.6000000000000001 0.1 0.30000000000000004
0.7000000000000001 0.1 0.30000000000000004
0.8 0.1 0.30000000000000004
0.9 0.1 0.30000000000000004
1.0 0.1 0.30000000000000004
0.0 0.2 0.30000000000000004
0.1 0.2 0.30000000000000004
0.2 0.2 0.30000000000000004
0.30000000000000004 0.2 0.30000000000000004
0.4 0.2 0.30000000000000004
0.5 0.2 0.30000000000000004
0.6000000000000001 0.2 0.30000000000000004
0.7000000000000001 0.2 0.30000000000000004
0.8 0.2 0.30000000000000004
0.9 0.2 0.30000000000000004
1.0 0.2 0.30000000000000004
0.0 0.30000000000000004 0.30000000000000004
0.1 0.30000000000000004 0.30000000000000004
0.2 0.30000000000000004 0.30000000000000004
0.30000000000000004 0.30000000000000004 0.30000000000000004
0.4 0.30000000000000004 0.30000000000000004
0.5 0.30000000000000004 0.30000000000000004
0.6000000000000001 0.30000000000000004 0.30000000000000004
0.7000000000000001 0.30000000000000004 0.30000000000000004
0.8 0.30000000000000004 0.30000000000000004
0.9 0.30000000000000004 0.30000000000000004
1.0 0.30000000000000004 0.30000000000000004
0.0 0.4 0.30000000000000004
0.1 0.4 0.30000000000000004
0.2 0.4 0.30000000000000004
0.30000000000000004 0.4 0.30000000000000004
0.4 0.4 0.30000000000000004
0.5 0.4 0.30000000000000004
0.6000000000000001 0.4 0.30000000000000004
0.7000000000000001 0.4 0.30000000000000004
0.8 0.4 0.30000000000000004
0.9 0.4 0.30000000000000004
1.0 0.4 0.30000000000000004
0.0 0.5 0.30000000000000004
0.1 0.5 0.30000000000000004
0.2 0.5 0.30000000000000004
0.30000000000000004 0.5 0.30000000000000004
0.4 0.5 0.30000000000000004
0.5 0.5 0.30000000000000004
0.6000000000000001 0.5 0.30000000000000004
0.7000000000000001 0.5 0.30000000000000004
0.8 0.5 0.30000000000000004
0.9 0.5 0.30000000000000004
1.0 0.5 0.30000000000000004
0.0 0.6000000000000001 0.30000000000000004
0.1 0.6000000000000001 0.30000000000000004
0.2 0.6000000000000001 0.30000000000000004
0.30000000000000004 0.6000000000000001 0.30000000000000004
[...]
POINT_DATA 1331
VECTORS Disp float
0.0 0.0 0.0
0.0 0.0 0.0
0.0 0.0 0.0
0.0 0.0 0.0
0.0 0.0 0.0
0.0 0.0 0.0
0.0 0.0 0.0
0.0 0.0 0.0
0.0 0.0 0.0
0.0 0.0 0.0
0.0 0.0 0.0
0.07093926632643222 0.01581261543256528 0.06785977389053878
0.05899697627450192 0.007282001221403087 0.03279429186585278
0.056462893277492744 0.0039631145978378515 0.023261111434969468
0.05803991898821078 0.0025980756549088147 0.01946428593791704
0.061513103636620256 0.0020180974358095494 0.018136576558427365
0.06560040258499485 0.0017642488108478812 0.01773590129187711
0.06973994123261235 0.001536432760645651 0.01789087878396652
0.0739543228658385 0.001298125444594099 0.018375196982251304
0.07806259833435505 0.0009335044227465257 0.017890508643812683
0.08235561286227523 0.0018161175440485529 0.013325112112639313
0.07606657758881794 -0.00286350169879553 -0.031508913286133186
0.1636111620554216 0.045622011131162474 0.09330040486049823
0.14044781473574472 0.019158569305429574 0.05733838408511801
0.13554358747294235 0.009835030451793946 0.03928011799317089
0.13796923615528006 0.005762117005399837 0.03290613920503336
0.14333923656320932 0.004225616336468661 0.030497523409207004
0.1493209175481962 0.0035962076398452472 0.029869215286405175
0.15492754486263133 0.003162311067660499 0.030060468252282018
0.1598926881510236 0.002629212457066344 0.030162251244625533
0.1639846968280211 0.001680874923507594 0.02841454928096829
0.1672230722482635 0.0016390701672644114 0.014555870343019741
0.14800015970253866 -0.014957219070457784 -0.0314931957071462
0.2609133837741281 0.07098572673971788 0.09174259724842959
0.23095265591722264 0.029185147357780918 0.06686594518738782
0.2255674873991843 0.01345243007326886 0.05008061967058095
0.2297118907516751 0.007171444809549007 0.043136326836566555
0.23730078858436704 0.004835631184009504 0.040673165818009636
0.24571282405978664 0.003940418749790336 0.04024760349408498
0.2540276716204517 0.003378731091503017 0.04072989184941758
0.2619415229596012 0.0024465533089756625 0.04103943264064691
0.26918337736645126 0.0005146196678176909 0.038409129866576706
0.27309780979873094 -0.004526034914292705 0.0247775035499193
0.24553752326135547 -0.0338276792607934 -0.010295771716251968
0.3671614009342058 0.07859609967903328 0.07474603046110466
0.3335775391027644 0.031171299940177373 0.06371148911942213
0.3299291407036597 0.012911306184404876 0.05446713382643474
0.3364476490528782 0.006044247782247666 0.04966834808907396
0.34608228324225326 0.0035305119079798155 0.04782382261159492
0.35649686405055936 0.0025365349749157753 0.04753210412245264
0.3670012390854714 0.0017845840841812573 0.048043590647965095
0.3772714274007507 0.0002621561116387494 0.04856555393029867
0.38653241891094736 -0.0034987937245085908 0.04704511079355962
0.3887838324223271 -0.014843620941804178 0.03910529289399743
0.3561812886756152 -0.05423426701176714 0.01961078652748678
0.4793742677069505 0.07094475452264179 0.049336927488278684
0.44500727417474334 0.025160495023300516 0.05300477289959438
0.44435828787448617 0.008847937151197006 0.0528416909775195
0.4530699331524793 0.003075037859213568 0.051461309334650214
0.4638215407869803 0.000930847934252816 0.050409602106063614
0.47500000000000087 -2.6960283141062215e-17 0.050041406926552914
0.4861784592130218 -0.0009308479342526728 0.05040960210606369
0.49693006684752294 -0.003075037859213422 0.05146130933465042
0.5056417121255163 -0.008847937151196873 0.05284169097751966
0.5049927258252594 -0.025160495023300245 0.053004772899594446
0.47062573229305227 -0.07094475452264153 0.04933692748827891
0.5938187113243876 0.05423426701176699 0.019610786527486764
0.561216167577676 0.014843620941804279 0.03910529289399722
0.5634675810890559 0.003498793724508679 0.04704511079355961
0.5727285725992527 -0.0002621561116386372 0.04856555393029841
0.5829987609145318 -0.0017845840841811727 0.04804359064796485
0.5935031359494435 -0.0025365349749158295 0.04753210412245247
0.6039177167577497 -0.0035305119079797336 0.04782382261159479
0.6135523509471246 -0.006044247782247665 0.04966834808907376
0.620070859296343 -0.012911306184404933 0.054467133826434665
0.6164224608972386 -0.03117129994017713 0.06371148911942187
0.5828385990657974 -0.07859609967903286 0.07474603046110435
0.7044624767386475 0.033827679260793136 -0.010295771716251876
0.6769021902012724 0.0045260349142926615 0.02477750354991896
0.680816622633552 -0.0005146196678175887 0.038409129866576394
0.6880584770404019 -0.0024465533089757644 0.04103943264064647
0.6959723283795516 -0.0033787310915029283 0.04072989184941738
0.7042871759402165 -0.00394041874979035 0.04024760349408481
0.7126992114156363 -0.0048356311840095445 0.04067316581800938
0.7202881092483284 -0.0071714448095489824 0.043136326836566125
0.7244325126008188 -0.013452430073269035 0.05008061967058052
0.7190473440827806 -0.029185147357780772 0.06686594518738724
0.6890866162258751 -0.07098572673971756 0.09174259724842912
0.8019998402974637 0.014957219070457679 -0.031493195707146
0.7827769277517391 -0.0016390701672644981 0.014555870343019382
0.7860153031719814 -0.001680874923507599 0.028414549280967816
0.7901073118489785 -0.002629212457066487 0.030162251244625207
0.7950724551373709 -0.0031623110676604702 0.030060468252281838
0.8006790824518062 -0.003596207639845198 0.029869215286404897
0.8066607634367929 -0.004225616336468693 0.030497523409206695
0.8120307638447223 -0.005762117005399831 0.03290613920503297
0.8144564125270598 -0.009835030451794012 0.03928011799317055
0.8095521852642577 -0.019158569305429498 0.05733838408511762
0.786388837944581 -0.045622011131162335 0.0933004048604979
0.8739334224111837 0.002863501698795722 -0.03150891328613306
0.8676443871377261 -0.0018161175440485934 0.013325112112638735
0.871937401665646 -0.0009335044227465384 0.017890508643812142
0.8760456771341624 -0.0012981254445941027 0.018375196982251107
0.8802600587673886 -0.0015364327606456451 0.017890878783966342
0.8843995974150061 -0.001764248810847812 0.01773590129187697
0.8884868963633807 -0.0020180974358095694 0.018136576558427122
0.8919600810117903 -0.002598075654908816 0.019464285937916742
0.8935371067225082 -0.00396311459783791 0.023261111434969325
0.8910030237254992 -0.007282001221403014 0.03279429186585262
0.8790607336735693 -0.015812615432565152 0.06785977389053818
0.9500000000000003 0.0 0.0
0.9500000000000003 0.0 0.0
0.9500000000000003 0.0 0.0
0.9500000000000003 0.0 0.0
0.9500000000000003 0.0 0.0
0.9500000000000003 0.0 0.0
0.9500000000000003 0.0 0.0
0.9500000000000003 0.0 0.0
0.9500000000000003 0.0 0.0
0.9500000000000003 0.0 0.0
0.9500000000000003 0.0 0.0
0.0 0.0 0.0
0.0 0.0 0.0
0.0 0.0 0.0
0.0 0.0 0.0
0.0 0.0 0.0
0.0 0.0 0.0
0.0 0.0 0.0
0.0 0.0 0.0
0.0 0.0 0.0
0.0 0.0 0.0
0.0 0.0 0.0
0.07914993535073618 0.012287642544036508 0.048469703469712376
0.0699451440110151 0.004369293062861975 0.023575956627947006
0.06813698507494151 0.002061296371550511 0.016668371134094598
0.0689696498862988 0.0010315922044524107 0.013633797594832811
0.0713658497846978 0.0006265895219043823 0.012542553475007188
0.07453569083065426 0.0004168258908985231 0.012340162316334788
0.07816891383633696 0.00019477192134708814 0.012664117258114454
0.08229011123057844 -0.00013982341813717982 0.01325181690149873
0.08679826104868694 -0.0009185524539704145 0.013249338043149806
0.09192026128266513 -0.0017069745088552713 0.00898639795820642
0.08978825466750222 -0.008859509517085671 -0.025618633267082806
0.17454499070363744 0.03963190571146684 0.06839348622192366
0.15320128315829165 0.015146990495976415 0.04304786864242605
0.14798798761075085 0.007308427872242366 0.029432754675808928
0.14871545065886183 0.0038896233284781163 0.024754641775124882
0.1522929127183118 0.002398522866628346 0.023098076349346082
0.15719462032974027 0.0015175443873577442 0.02297748641283022
0.16276382524481342 0.0006446139409138095 0.023542468250332082
0.16873443130423946 -0.000638548963558748 0.02403314152110342
0.17460069837403785 -0.002954225493016395 0.022776301003744753
0.17903399001547632 -0.006505365604995032 0.010990223297712313
0.16559237442370264 -0.025530962779164487 -0.024613730344204766
0.2738173335959883 0.06667101534384014 0.06863569750105615
0.2439483566381757 0.027316779547642167 0.05117915949510647
0.23676610112954205 0.012624812586646817 0.038791039127866765
0.23870068792817156 0.006624290683185509 0.033659775136338346
0.24435450937184072 0.003804860430620838 0.03209432686281898
0.2516440780731452 0.002074841670389989 0.03210479887532566
0.25964155933933597 0.00039559928946071804 0.03270335495293249
0.2677535529231893 -0.002071904440369446 0.032943485757998436
0.2752086547151416 -0.006237827920825165 0.03031017322932045
0.27873828375277204 -0.014842226305265818 0.019295235093237773
0.2566628060826852 -0.04573215874267511 -0.008733122970430326
0.3792508406511005 0.07990986841525434 0.05735882229115723
0.3449745558405806 0.03368875718325989 0.04976664262809409
0.33821707948841606 0.015089691145089793 0.042988734986449784
0.3423316691713372 0.007516339846168911 0.039649343974222706
0.35025380009119644 0.0038202826003673044 0.03859283975547087
0.35966035477762925 0.001457109006219164 0.038610461109337704
0.36951664302880866 -0.0008573458794594413 0.03902795974293946
0.3789586229868507 -0.004264646017178904 0.039088969517121284
0.38663072323024417 -0.010401285029757998 0.03726167128686738
0.3867982366337651 -0.02462952070122539 0.031053589803313384
0.35750704321636484 -0.06510157624253232 0.014944532273538194
0.48686079766226203 0.07802308785808056 0.03830278789589993
0.4530382698693753 0.03203981297950481 0.04198401888531878
0.4490836157158838 0.013956014334741645 0.041983423621607806
0.4553577621074846 0.00642854907442008 0.041452244042310314
0.4646906003985577 0.0025690138546837116 0.04107469942962053
0.4750000000000013 9.067614080165106e-17 0.04092298600136624
0.4853093996014447 -0.002569013854683637 0.041074699429620574
0.49464223789251793 -0.006428549074419847 0.04145224404231052
0.5009163842841184 -0.013956014334741517 0.04198342362160796
0.4969617301306273 -0.03203981297950433 0.0419840188853188
0.4631392023377403 -0.07802308785808024 0.038302787895899866
0.5924929567836379 0.06510157624253221 0.014944532273538341
0.563201763366238 0.024629520701225666 0.03105358980331322
0.5633692767697588 0.010401285029758112 0.037261671286867255
0.5710413770131523 0.00426464601717896 0.03908896951712117
0.5804833569711942 0.0008573458794594446 0.03902795974293936
0.5903396452223738 -0.0014571090062189482 0.03861046110933763
0.5997461999088063 -0.0038202826003671713 0.03859283975547087
0.6076683308286657 -0.007516339846168594 0.039649343974222574
0.6117829205115866 -0.015089691145089583 0.042988734986449756
0.6050254441594222 -0.03368875718325954 0.049766642628093855
0.5707491593489022 -0.07990986841525392 0.05735882229115695
0.6933371939173179 0.04573215874267477 -0.008733122970430097
0.6712617162472314 0.01484222630526583 0.019295235093237627
0.6747913452848618 0.006237827920825292 0.030310173229320204
0.6822464470768137 0.0020719044403693957 0.03294348575799811
0.6903584406606669 -0.00039559928946086674 0.0327033549529323
0.698355921926858 -0.0020748416703898604 0.032104798875325406
0.7056454906281627 -0.003804860430620634 0.03209432686281864
0.7112993120718317 -0.00662429068318544 0.03365977513633799
0.7132338988704613 -0.012624812586646687 0.03879103912786646
0.7060516433618275 -0.027316779547642073 0.051179159495106125
0.6761826664040148 -0.06667101534384008 0.06863569750105591
0.7844076255762995 0.02553096277916439 -0.02461373034420472
0.7709660099845261 0.006505365604994977 0.01099022329771198
0.7753993016259648 0.0029542254930165603 0.022776301003744358
0.781265568695763 0.0006385489635586814 0.024033141521103137
0.7872361747551888 -0.0006446139409140095 0.02354246825033192
0.7928053796702622 -0.0015175443873577282 0.02297748641282994
0.7977070872816909 -0.002398522866628093 0.023098076349345846
0.8012845493411407 -0.0038896233284780803 0.02475464177512457
0.8020120123892516 -0.0073084278722422855 0.02943275467580859
0.7967987168417109 -0.015146990495976441 0.04304786864242574
0.7754550092963652 -0.03963190571146689 0.0683934862219233
0.8602117453324992 0.008859509517085673 -0.025618633267082504
0.8580797387173363 0.0017069745088552166 0.008986397958206051
0.8632017389513146 0.0009185524539704835 0.013249338043149397
0.8677098887694228 0.00013982341813713176 0.013251816901498535
0.8718310861636641 -0.00019477192134717468 0.012664117258114225
0.8754643091693468 -0.00041682589089856977 0.012340162316334606
0.8786341502153034 -0.0006265895219042467 0.012542553475006983
0.8810303501137026 -0.001031592204452366 0.013633797594832558
0.8818630149250598 -0.002061296371550477 0.016668371134094438
0.8800548559889861 -0.004369293062861992 0.023575956627946846
0.8708500646492654 -0.012287642544036489 0.04846970346971183
0.9500000000000003 0.0 0.0
0.9500000000000003 0.0 0.0
0.9500000000000003 0.0 0.0
0.9500000000000003 0.0 0.0
0.9500000000000003 0.0 0.0
0.9500000000000003 0.0 0.0
0.9500000000000003 0.0 0.0
0.9500000000000003 0.0 0.0
0.9500000000000003 0.0 0.0
0.9500000000000003 0.0 0.0
0.9500000000000003 0.0 0.0
0.0 0.0 0.0
0.0 0.0 0.0
0.0 0.0 0.0
0.0 0.0 0.0
0.0 0.0 0.0
0.0 0.0 0.0
0.0 0.0 0.0
0.0 0.0 0.0
0.0 0.0 0.0
0.0 0.0 0.0
0.0 0.0 0.0
0.08654005715657123 0.012429615913548782 0.033206208673893706
0.076196849853339 0.004132448213319802 0.016907205299104944
0.07414448556859367 0.002092222542671179 0.01219231876490391
0.07446910731922439 0.0009563038507343156 0.009791220225210685
0.07636234060670212 0.000492680605966721 0.008808446799749056
0.0790694371266432 0.00019505074744985667 0.008620950379503617
0.0823912540854053 -0.00011764932009814482 0.008914834335280347
0.08639260626568643 -0.0005963985722274292 0.009485441553102393
0.09120429511064723 -0.0014030778494484052 0.00978180463578053
0.09672718390412631 -0.0024983134949382096 0.006862536598613923
0.09722230476486152 -0.008916307410277808 -0.016948204759476233
0.1816546518660624 0.03826142988694686 0.04766842633544128
0.16120995543050098 0.014946790679963847 0.03124310906732874
0.15555191572168356 0.006953885653292036 0.02147798923639841
0.15558790231185238 0.0033539649162439974 0.017949247749403735
0.15857027224584264 0.001687621894871654 0.016695400551773428
0.16308206819177604 0.0006465424082945275 0.016691882317921652
0.16853786183889458 -0.0003879380459827072 0.017270840879793286
0.17465283939485982 -0.0019068724059202306 0.017870456737312582
0.18121855590987812 -0.004315013349938031 0.01717292520519739
0.18658903154933407 -0.008951841631125083 0.00877023925702371
0.17971168359833545 -0.02660087134719785 -0.01580869899317976
0.2786722797237489 0.06328348934489267 0.0485852368337697
0.2515142308444653 0.02726960860221577 0.037086519871984046
0.24361707504489655 0.0123253323629086 0.028464236767683792
0.24457215290349898 0.006011342066927712 0.02464644486941033
0.24944966643861372 0.002966678700980806 0.023602171071232855
0.25621272844852017 0.0010527070932487483 0.023748176919502276
0.2639111599647477 -0.0008005480874457126 0.02429809292229303
0.2718743442068986 -0.0034459312876262663 0.02448710354503226
0.2793374328515496 -0.00785215739919466 0.02240691882825603
0.28272425120598454 -0.017727560350870714 0.014861689222673445
0.26767314332235953 -0.04611831267141633 -0.004301588335302513
0.3806722487102654 0.07614447761459175 0.041647533275354885
0.35084354877607604 0.034152134043099476 0.03636796414840385
0.34311820250441066 0.01530173192428315 0.03154998684107195
0.34600257339109936 0.007301472058539272 0.02924462420571638
0.3530872837762684 0.0033571397730480066 0.028672269973994975
0.36192189370563627 0.0008060447073630527 0.028822669343474577
0.3713322293886333 -0.0016907269911275705 0.029130936744441564
0.38034938747753405 -0.005274592750655556 0.02896334671608094
0.38738547889505326 -0.01182311473670329 0.027361617567273438
0.3869244495039561 -0.02695618387107683 0.02330353262765334
0.36415328871679475 -0.06398329302605049 0.012421627386149593
0.4844307949611324 0.07532076712567172 0.028757083382465794
0.4562196913712921 0.033438670017725144 0.03108552975828663
0.45133690623162454 0.014859549233345076 0.030844304013830825
0.45650168130503 0.006853844824527728 0.030707027547396876
0.4651629653850516 0.002756470073831009 0.03069977963988844
0.4750000000000014 -2.96256856098758e-18 0.03067754071907053
0.4848370346149513 -0.0027564700738309674 0.03069977963988849
0.4934983186949731 -0.006853844824527468 0.03070702754739703
0.4986630937683784 -0.014859549233344909 0.03084430401383093
0.4937803086287109 -0.033438670017724895 0.031085529758286677
0.4655692050388705 -0.07532076712567155 0.028757083382465652
0.5858467112832082 0.06398329302605069 0.012421627386149903
0.5630755504960469 0.02695618387107721 0.02330353262765323
0.5626145211049494 0.01182311473670342 0.027361617567273296
0.5696506125224685 0.005274592750655722 0.02896334671608089
0.5786677706113691 0.0016907269911275297 0.029130936744441553
0.5880781062943663 -0.0008060447073630773 0.0288226693434746
0.5969127162237343 -0.00335713977304788 0.028672269973995013
0.6039974266089033 -0.007301472058539075 0.029244624205716364
0.6068817974955921 -0.015301731924282837 0.0315499868410719
0.5991564512239266 -0.034152134043099226 0.03636796414840372
0.5693277512897374 -0.07614447761459146 0.04164753327535465
0.6823268566776434 0.04611831267141626 -0.0043015883353024215
0.6672757487940191 0.01772756035087094 0.014861689222673398
0.6706625671484537 0.007852157399194695 0.022406918828255885
0.6781256557931047 0.0034459312876263673 0.024487103545032043
0.6860888400352553 0.0008005480874455902 0.024298092922292874
0.6937872715514828 -0.0010527070932487758 0.023748176919502033
0.7005503335613892 -0.0029666787009808237 0.023602171071232622
0.7054278470965041 -0.006011342066927443 0.0246464448694101
0.7063829249551062 -0.012325332362908361 0.028464236767683577
0.6984857691555374 -0.027269608602215643 0.037086519871983796
0.6713277202762539 -0.06328348934489238 0.048585236833769634
0.770288316401667 0.02660087134719777 -0.01580869899317968
0.7634109684506687 0.008951841631125258 0.008770239257023504
0.7687814440901244 0.004315013349937993 0.017172925205197087
0.7753471606051427 0.0019068724059203416 0.017870456737312364
0.7814621381611078 0.00038793804598258834 0.017270840879793158
0.7869179318082263 -0.0006465424082945783 0.016691882317921423
0.7914297277541597 -0.0016876218948717327 0.01669540055177324
0.7944120976881502 -0.003353964916243784 0.017949247749403447
0.7944480842783189 -0.0069538856532918815 0.021477989236398164
0.7887900445695015 -0.014946790679963812 0.031243109067328467
0.7683453481339402 -0.038261429886946974 0.04766842633544096
0.8527776952351394 0.008916307410277833 -0.01694820475947619
0.853272816095875 0.0024983134949383414 0.006862536598613574
0.8587957048893539 0.0014030778494483578 0.009781804635780302
0.8636073937343147 0.0005963985722274702 0.009485441553102273
0.8676087459145957 0.00011764932009812373 0.008914834335280107
0.8709305628733578 -0.00019505074744987798 0.008620950379503448
0.8736376593932987 -0.0004926806059667906 0.008808446799748893
0.8755308926807767 -0.0009563038507342058 0.00979122022521052
0.8758555144314075 -0.0020922225426711046 0.012192318764903731
0.8738031501466622 -0.004132448213319783 0.016907205299104767
0.86345994284343 -0.01242961591354876 0.03320620867389325
0.9500000000000003 0.0 0.0
0.9500000000000003 0.0 0.0
0.9500000000000003 0.0 0.0
0.9500000000000003 0.0 0.0
0.9500000000000003 0.0 0.0
0.9500000000000003 0.0 0.0
0.9500000000000003 0.0 0.0
0.9500000000000003 0.0 0.0
0.9500000000000003 0.0 0.0
0.9500000000000003 0.0 0.0
0.9500000000000003 0.0 0.0
0.0 0.0 0.0
0.0 0.0 0.0
0.0 0.0 0.0
0.0 0.0 0.0
0.0 0.0 0.0
0.0 0.0 0.0
0.0 0.0 0.0
0.0 0.0 0.0
0.0 0.0 0.0
0.0 0.0 0.0
0.0 0.0 0.0
0.09038409701037219 0.0121630516354584 0.020451127485378303
0.07923410450841868 0.003777412355949525 0.0109502426905705
0.0773162673016892 0.0019767026500690835 0.00810177951667542
0.077595536494395 0.0008084920163998391 0.0064487866131193936