# vtk DataFile Version 3.0
Some data
ASCII
DATASET UNSTRUCTURED_GRID
POINTS 1331 float
0.0 0.0 0.0
0.1 0.0 0.0
0.2 0.0 0.0
0.30000000000000004 0.0 0.0
0.4 0.0 0.0
0.5 0.0 0.0
0.6000000000000001 0.0 0.0
0.7000000000000001 0.0 0.0
0.8 0.0 0.0
0.9 0.0 0.0
1.0 0.0 0.0
0.0 0.1 0.0
0.1 0.1 0.0
0.2 0.1 0.0
0.30000000000000004 0.1 0.0
0.4 0.1 0.0
0.5 0.1 0.0
0.6000000000000001 0.1 0.0
0.7000000000000001 0.1 0.0
0.8 0.1 0.0
0.9 0.1 0.0
1.0 0.1 0.0
0.0 0.2 0.0
0.1 0.2 0.0
0.2 0.2 0.0
0.30000000000000004 0.2 0.0
0.4 0.2 0.0
0.5 0.2 0.0
0.6000000000000001 0.2 0.0
0.7000000000000001 0.2 0.0
0.8 0.2 0.0
0.9 0.2 0.0
1.0 0.2 0.0
0.0 0.30000000000000004 0.0
0.1 0.30000000000000004 0.0
0.2 0.30000000000000004 0.0
0.30000000000000004 0.30000000000000004 0.0
0.4 0.30000000000000004 0.0
0.5 0.30000000000000004 0.0
0.6000000000000001 0.30000000000000004 0.0
0.7000000000000001 0.30000000000000004 0.0
0.8 0.30000000000000004 0.0
0.9 0.30000000000000004 0.0
1.0 0.30000000000000004 0.0
0.0 0.4 0.0
0.1 0.4 0.0
0.2 0.4 0.0
0.30000000000000004 0.4 0.0
0.4 0.4 0.0
0.5 0.4 0.0
0.6000000000000001 0.4 0.0
0.7000000000000001 0.4 0.0
0.8 0.4 0.0
0.9 0.4 0.0
1.0 0.4 0.0
0.0 0.5 0.0
0.1 0.5 0.0
0.2 0.5 0.0
0.30000000000000004 0.5 0.0
0.4 0.5 0.0
0.5 0.5 0.0
0.6000000000000001 0.5 0.0
0.7000000000000001 0.5 0.0
0.8 0.5 0.0
0.9 0.5 0.0
1.0 0.5 0.0
0.0 0.6000000000000001 0.0
0.1 0.6000000000000001 0.0
0.2 0.6000000000000001 0.0
0.30000000000000004 0.6000000000000001 0.0
0.4 0.6000000000000001 0.0
0.5 0.6000000000000001 0.0
0.6000000000000001 0.6000000000000001 0.0
0.7000000000000001 0.6000000000000001 0.0
0.8 0.6000000000000001 0.0
0.9 0.6000000000000001 0.0
1.0 0.6000000000000001 0.0
0.0 0.7000000000000001 0.0
0.1 0.7000000000000001 0.0
0.2 0.7000000000000001 0.0
0.30000000000000004 0.7000000000000001 0.0
0.4 0.7000000000000001 0.0
0.5 0.7000000000000001 0.0
0.6000000000000001 0.7000000000000001 0.0
0.7000000000000001 0.7000000000000001 0.0
0.8 0.7000000000000001 0.0
0.9 0.7000000000000001 0.0
1.0 0.7000000000000001 0.0
0.0 0.8 0.0
0.1 0.8 0.0
0.2 0.8 0.0
0.30000000000000004 0.8 0.0
0.4 0.8 0.0
0.5 0.8 0.0
0.6000000000000001 0.8 0.0
0.7000000000000001 0.8 0.0
0.8 0.8 0.0
0.9 0.8 0.0
1.0 0.8 0.0
0.0 0.9 0.0
0.1 0.9 0.0
0.2 0.9 0.0
0.30000000000000004 0.9 0.0
0.4 0.9 0.0
0.5 0.9 0.0
0.6000000000000001 0.9 0.0
0.7000000000000001 0.9 0.0
0.8 0.9 0.0
0.9 0.9 0.0
1.0 0.9 0.0
0.0 1.0 0.0
0.1 1.0 0.0
0.2 1.0 0.0
0.30000000000000004 1.0 0.0
0.4 1.0 0.0
0.5 1.0 0.0
0.6000000000000001 1.0 0.0
0.7000000000000001 1.0 0.0
0.8 1.0 0.0
0.9 1.0 0.0
1.0 1.0 0.0
0.0 0.0 0.1
0.1 0.0 0.1
0.2 0.0 0.1
0.30000000000000004 0.0 0.1
0.4 0.0 0.1
0.5 0.0 0.1
0.6000000000000001 0.0 0.1
0.7000000000000001 0.0 0.1
0.8 0.0 0.1
0.9 0.0 0.1
1.0 0.0 0.1
0.0 0.1 0.1
0.1 0.1 0.1
0.2 0.1 0.1
0.30000000000000004 0.1 0.1
0.4 0.1 0.1
0.5 0.1 0.1
0.6000000000000001 0.1 0.1
0.7000000000000001 0.1 0.1
0.8 0.1 0.1
0.9 0.1 0.1
1.0 0.1 0.1
0.0 0.2 0.1
0.1 0.2 0.1
0.2 0.2 0.1
0.30000000000000004 0.2 0.1
0.4 0.2 0.1
0.5 0.2 0.1
0.6000000000000001 0.2 0.1
0.7000000000000001 0.2 0.1
0.8 0.2 0.1
0.9 0.2 0.1
1.0 0.2 0.1
0.0 0.30000000000000004 0.1
0.1 0.30000000000000004 0.1
0.2 0.30000000000000004 0.1
0.30000000000000004 0.30000000000000004 0.1
0.4 0.30000000000000004 0.1
0.5 0.30000000000000004 0.1
0.6000000000000001 0.30000000000000004 0.1
0.7000000000000001 0.30000000000000004 0.1
0.8 0.30000000000000004 0.1
0.9 0.30000000000000004 0.1
1.0 0.30000000000000004 0.1
0.0 0.4 0.1
0.1 0.4 0.1
0.2 0.4 0.1
0.30000000000000004 0.4 0.1
0.4 0.4 0.1
0.5 0.4 0.1
0.6000000000000001 0.4 0.1
0.7000000000000001 0.4 0.1
0.8 0.4 0.1
0.9 0.4 0.1
1.0 0.4 0.1
0.0 0.5 0.1
0.1 0.5 0.1
0.2 0.5 0.1
0.30000000000000004 0.5 0.1
0.4 0.5 0.1
0.5 0.5 0.1
0.6000000000000001 0.5 0.1
0.7000000000000001 0.5 0.1
0.8 0.5 0.1
0.9 0.5 0.1
1.0 0.5 0.1
0.0 0.6000000000000001 0.1
0.1 0.6000000000000001 0.1
0.2 0.6000000000000001 0.1
0.30000000000000004 0.6000000000000001 0.1
0.4 0.6000000000000001 0.1
0.5 0.6000000000000001 0.1
0.6000000000000001 0.6000000000000001 0.1
0.7000000000000001 0.6000000000000001 0.1
0.8 0.6000000000000001 0.1
0.9 0.6000000000000001 0.1
1.0 0.6000000000000001 0.1
0.0 0.7000000000000001 0.1
0.1 0.7000000000000001 0.1
0.2 0.7000000000000001 0.1
0.30000000000000004 0.7000000000000001 0.1
0.4 0.7000000000000001 0.1
0.5 0.7000000000000001 0.1
0.6000000000000001 0.7000000000000001 0.1
0.7000000000000001 0.7000000000000001 0.1
0.8 0.7000000000000001 0.1
0.9 0.7000000000000001 0.1
1.0 0.7000000000000001 0.1
0.0 0.8 0.1
0.1 0.8 0.1
0.2 0.8 0.1
0.30000000000000004 0.8 0.1
0.4 0.8 0.1
0.5 0.8 0.1
0.6000000000000001 0.8 0.1
0.7000000000000001 0.8 0.1
0.8 0.8 0.1
0.9 0.8 0.1
1.0 0.8 0.1
0.0 0.9 0.1
0.1 0.9 0.1
0.2 0.9 0.1
0.30000000000000004 0.9 0.1
0.4 0.9 0.1
0.5 0.9 0.1
0.6000000000000001 0.9 0.1
0.7000000000000001 0.9 0.1
0.8 0.9 0.1
0.9 0.9 0.1
1.0 0.9 0.1
0.0 1.0 0.1
0.1 1.0 0.1
0.2 1.0 0.1
0.30000000000000004 1.0 0.1
0.4 1.0 0.1
0.5 1.0 0.1
0.6000000000000001 1.0 0.1
0.7000000000000001 1.0 0.1
0.8 1.0 0.1
0.9 1.0 0.1
1.0 1.0 0.1
0.0 0.0 0.2
0.1 0.0 0.2
0.2 0.0 0.2
0.30000000000000004 0.0 0.2
0.4 0.0 0.2
0.5 0.0 0.2
0.6000000000000001 0.0 0.2
0.7000000000000001 0.0 0.2
0.8 0.0 0.2
0.9 0.0 0.2
1.0 0.0 0.2
0.0 0.1 0.2
0.1 0.1 0.2
0.2 0.1 0.2
0.30000000000000004 0.1 0.2
0.4 0.1 0.2
0.5 0.1 0.2
0.6000000000000001 0.1 0.2
0.7000000000000001 0.1 0.2
0.8 0.1 0.2
0.9 0.1 0.2
1.0 0.1 0.2
0.0 0.2 0.2
0.1 0.2 0.2
0.2 0.2 0.2
0.30000000000000004 0.2 0.2
0.4 0.2 0.2
0.5 0.2 0.2
0.6000000000000001 0.2 0.2
0.7000000000000001 0.2 0.2
0.8 0.2 0.2
0.9 0.2 0.2
1.0 0.2 0.2
0.0 0.30000000000000004 0.2
0.1 0.30000000000000004 0.2
0.2 0.30000000000000004 0.2
0.30000000000000004 0.30000000000000004 0.2
0.4 0.30000000000000004 0.2
0.5 0.30000000000000004 0.2
0.6000000000000001 0.30000000000000004 0.2
0.7000000000000001 0.30000000000000004 0.2
0.8 0.30000000000000004 0.2
0.9 0.30000000000000004 0.2
1.0 0.30000000000000004 0.2
0.0 0.4 0.2
0.1 0.4 0.2
0.2 0.4 0.2
0.30000000000000004 0.4 0.2
0.4 0.4 0.2
0.5 0.4 0.2
0.6000000000000001 0.4 0.2
0.7000000000000001 0.4 0.2
0.8 0.4 0.2
0.9 0.4 0.2
1.0 0.4 0.2
0.0 0.5 0.2
0.1 0.5 0.2
0.2 0.5 0.2
0.30000000000000004 0.5 0.2
0.4 0.5 0.2
0.5 0.5 0.2
0.6000000000000001 0.5 0.2
0.7000000000000001 0.5 0.2
0.8 0.5 0.2
0.9 0.5 0.2
1.0 0.5 0.2
0.0 0.6000000000000001 0.2
0.1 0.6000000000000001 0.2
0.2 0.6000000000000001 0.2
0.30000000000000004 0.6000000000000001 0.2
0.4 0.6000000000000001 0.2
0.5 0.6000000000000001 0.2
0.6000000000000001 0.6000000000000001 0.2
0.7000000000000001 0.6000000000000001 0.2
0.8 0.6000000000000001 0.2
0.9 0.6000000000000001 0.2
1.0 0.6000000000000001 0.2
0.0 0.7000000000000001 0.2
0.1 0.7000000000000001 0.2
0.2 0.7000000000000001 0.2
0.30000000000000004 0.7000000000000001 0.2
0.4 0.7000000000000001 0.2
0.5 0.7000000000000001 0.2
0.6000000000000001 0.7000000000000001 0.2
0.7000000000000001 0.7000000000000001 0.2
0.8 0.7000000000000001 0.2
0.9 0.7000000000000001 0.2
1.0 0.7000000000000001 0.2
0.0 0.8 0.2
0.1 0.8 0.2
0.2 0.8 0.2
0.30000000000000004 0.8 0.2
0.4 0.8 0.2
0.5 0.8 0.2
0.6000000000000001 0.8 0.2
0.7000000000000001 0.8 0.2
0.8 0.8 0.2
0.9 0.8 0.2
1.0 0.8 0.2
0.0 0.9 0.2
0.1 0.9 0.2
0.2 0.9 0.2
0.30000000000000004 0.9 0.2
0.4 0.9 0.2
0.5 0.9 0.2
0.6000000000000001 0.9 0.2
0.7000000000000001 0.9 0.2
0.8 0.9 0.2
0.9 0.9 0.2
1.0 0.9 0.2
0.0 1.0 0.2
0.1 1.0 0.2
0.2 1.0 0.2
0.30000000000000004 1.0 0.2
0.4 1.0 0.2
0.5 1.0 0.2
0.6000000000000001 1.0 0.2
0.7000000000000001 1.0 0.2
0.8 1.0 0.2
0.9 1.0 0.2
1.0 1.0 0.2
0.0 0.0 0.30000000000000004
0.1 0.0 0.30000000000000004
0.2 0.0 0.30000000000000004
0.30000000000000004 0.0 0.30000000000000004
0.4 0.0 0.30000000000000004
0.5 0.0 0.30000000000000004
0.6000000000000001 0.0 0.30000000000000004
0.7000000000000001 0.0 0.30000000000000004
0.8 0.0 0.30000000000000004
0.9 0.0 0.30000000000000004
1.0 0.0 0.30000000000000004
0.0 0.1 0.30000000000000004
0.1 0.1 0.30000000000000004
0.2 0.1 0.30000000000000004
0.30000000000000004 0.1 0.30000000000000004
0.4 0.1 0.30000000000000004
0.5 0.1 0.30000000000000004
0.6000000000000001 0.1 0.30000000000000004
0.7000000000000001 0.1 0.30000000000000004
0.8 0.1 0.30000000000000004
0.9 0.1 0.30000000000000004
1.0 0.1 0.30000000000000004
0.0 0.2 0.30000000000000004
0.1 0.2 0.30000000000000004
0.2 0.2 0.30000000000000004
0.30000000000000004 0.2 0.30000000000000004
0.4 0.2 0.30000000000000004
0.5 0.2 0.30000000000000004
0.6000000000000001 0.2 0.30000000000000004
0.7000000000000001 0.2 0.30000000000000004
0.8 0.2 0.30000000000000004
0.9 0.2 0.30000000000000004
1.0 0.2 0.30000000000000004
0.0 0.30000000000000004 0.30000000000000004
0.1 0.30000000000000004 0.30000000000000004
0.2 0.30000000000000004 0.30000000000000004
0.30000000000000004 0.30000000000000004 0.30000000000000004
0.4 0.30000000000000004 0.30000000000000004
0.5 0.30000000000000004 0.30000000000000004
0.6000000000000001 0.30000000000000004 0.30000000000000004
0.7000000000000001 0.30000000000000004 0.30000000000000004
0.8 0.30000000000000004 0.30000000000000004
0.9 0.30000000000000004 0.30000000000000004
1.0 0.30000000000000004 0.30000000000000004
0.0 0.4 0.30000000000000004
0.1 0.4 0.30000000000000004
0.2 0.4 0.30000000000000004
0.30000000000000004 0.4 0.30000000000000004
0.4 0.4 0.30000000000000004
0.5 0.4 0.30000000000000004
0.6000000000000001 0.4 0.30000000000000004
0.7000000000000001 0.4 0.30000000000000004
0.8 0.4 0.30000000000000004
0.9 0.4 0.30000000000000004
1.0 0.4 0.30000000000000004
0.0 0.5 0.30000000000000004
0.1 0.5 0.30000000000000004
0.2 0.5 0.30000000000000004
0.30000000000000004 0.5 0.30000000000000004
0.4 0.5 0.30000000000000004
0.5 0.5 0.30000000000000004
0.6000000000000001 0.5 0.30000000000000004
0.7000000000000001 0.5 0.30000000000000004
0.8 0.5 0.30000000000000004
0.9 0.5 0.30000000000000004
1.0 0.5 0.30000000000000004
0.0 0.6000000000000001 0.30000000000000004
0.1 0.6000000000000001 0.30000000000000004
0.2 0.6000000000000001 0.30000000000000004
0.30000000000000004 0.6000000000000001 0.30000000000000004
[...]
POINT_DATA 1331
VECTORS Disp float
0.0 0.0 0.0
0.0 0.0 0.0
0.0 0.0 0.0
0.0 0.0 0.0
0.0 0.0 0.0
0.0 0.0 0.0
0.0 0.0 0.0
0.0 0.0 0.0
0.0 0.0 0.0
0.0 0.0 0.0
0.0 0.0 0.0
0.010182948693216922 0.007314882891199352 0.012883782410458684
0.006559555365040755 0.0032827729302969772 0.006723325648110432
0.005625234198334956 0.001455946834091166 0.00402427145685719
0.005869070924815383 0.0006931598137039951 0.002412536784099157
0.0062445814746797 0.00039892237963220644 0.001394281470320014
0.00647163218598728 0.00023139506086604925 0.0005612131626058851
0.006491149216441324 0.00010555512997135201 -0.0002071009796927243
0.006278067959201229 -3.697262925030484e-05 -0.001013008206852586
0.005880658650212419 -0.00024760515849007493 -0.0019094606354782538
0.006017296610377939 -0.0015672250649973426 -0.004004844967287649
0.00820822487823968 -0.006572271054446149 -0.010861018590746108
0.021522725937360508 0.01700113472606034 0.015438340541448416
0.018557948382261904 0.007734093966595209 0.009395273110787295
0.017588136679954913 0.0030523248854753527 0.005497613129278635
0.01777810120989553 0.0013441008680103316 0.0034504663915170333
0.018185081282519656 0.0006931126411905689 0.0019527045958476225
0.018476401450945333 0.0003442113267242152 0.0007506593124885831
0.018578929450437518 5.503548878636798e-05 -0.00034384527268070653
0.018512623062956327 -0.0003307744384822403 -0.0014744143701709155
0.01848742112078565 -0.001156030474483346 -0.0028099153970798517
0.0187729646962939 -0.004408131592409357 -0.005386986666707956
0.01950566021508173 -0.014631367171699886 -0.011014387586614474
0.03769053056799266 0.023021581348838492 0.01299824332431141
0.03528994241000971 0.010334676613281201 0.008368670891891253
0.03448106327702538 0.004064384195951386 0.005414267595501976
0.03457034434316454 0.0017423106204914386 0.0034481050511334633
0.03491300016515479 0.0007904744142183427 0.0020078740063115314
0.03524963636155641 0.0002931824199747981 0.0008847113474600475
0.03547938578129479 -0.00015132112022215983 -9.78742933595429e-05
0.03564596434326458 -0.0008666925674291555 -0.001063782821600239
0.03591296371749643 -0.00252246883259668 -0.0023109610718963914
0.03628766314156126 -0.007024817382681059 -0.0037829538514091788
0.03602637143235853 -0.02053190316820922 -0.007181235725799718
0.05666817176425942 0.025797204200554594 0.008027138489993839
0.05465818965748956 0.011153512243689215 0.005444637117127189
0.05412890771779126 0.0045460410488213435 0.0038780729990054758
0.05417232405890207 0.0019009571932201382 0.0025645729827093117
0.05443128656612897 0.0007497213828173624 0.0016039546597352774
0.05474303933714507 0.00014406671090543406 0.0009183511423380619
0.05502044068048727 -0.0004323766572057598 0.00039199245542505
0.05526806734407369 -0.0014554273711897478 -5.694145138516305e-05
0.05551675538466873 -0.003799102901685292 -0.0005760827827207031
0.05572256207184119 -0.009237564715066511 -0.0010313766754946167
0.05479603870042696 -0.024345267141811944 -0.0021955891887892112
0.07655506539740294 0.026020324437919413 0.002444766644059455
0.0749773372956569 0.010659754290475613 0.0019535270016630473
0.07470478282249314 0.004484512005760202 0.0015745014265786058
0.07469407465589918 0.0018182199512073384 0.0011682720306891805
0.0748198836352415 0.0006376039582472493 0.0009215141650688285
0.07500000000000008 2.109515028585797e-17 0.0008417887883898236
0.0751801163647587 -0.0006376039582472227 0.0009215141650689112
0.07530592534410108 -0.0018182199512073204 0.0011682720306892532
0.07529521717750709 -0.004484512005760213 0.00157450142657866
0.07502266270434331 -0.01065975429047564 0.0019535270016631107
0.07344493460259728 -0.026020324437919448 0.002444766644059555
0.09520396129957329 0.02434526714181189 -0.002195589188789335
0.09427743792815904 0.009237564715066478 -0.001031376675494686
0.09448324461533147 0.003799102901685299 -0.0005760827827208244
0.09473193265592647 0.0014554273711897855 -5.694145138522653e-05
0.0949795593195129 0.0004323766572058009 0.0003919924554249971
0.09525696066285506 -0.0001440667109054252 0.0009183511423380548
0.09556871343387109 -0.000749721382817383 0.0016039546597352943
0.095827675941098 -0.0019009571932201343 0.002564572982709384
0.09587109228220882 -0.004546041048821354 0.0038780729990055543
0.09534181034251053 -0.011153512243689231 0.00544463711712727
0.0933318282357407 -0.025797204200554584 0.008027138489993913
0.11397362856764162 0.020531903168209218 -0.007181235725799768
0.1137123368584389 0.007024817382681032 -0.003782953851409224
0.11408703628250375 0.0025224688325966877 -0.0023109610718964634
0.11435403565673558 0.000866692567429206 -0.0010637828216003258
0.11452061421870534 0.00015132112022218545 -9.7874293359606e-05
0.11475036363844374 -0.00029318241997478803 0.0008847113474600758
0.11508699983484534 -0.0007904744142183569 0.0020078740063115756
0.11542965565683559 -0.0017423106204914201 0.003448105051133502
0.11551893672297477 -0.004064384195951381 0.005414267595502047
0.11471005758999042 -0.010334676613281179 0.008368670891891302
0.11230946943200742 -0.023021581348838464 0.012998243324311438
0.13049433978491826 0.014631367171699874 -0.011014387586614478
0.13122703530370614 0.004408131592409366 -0.005386986666707981
0.13151257887921441 0.001156030474483345 -0.0028099153970798695
0.13148737693704374 0.00033077443848228953 -0.0014744143701709287
0.1314210705495626 -5.503548878635005e-05 -0.00034384527268070024
0.13152359854905482 -0.00034421132672423987 0.000750659312488595
0.13181491871748052 -0.0006931126411905594 0.001952704595847663
0.13222189879010462 -0.0013441008680103485 0.003450466391517061
0.1324118633200452 -0.0030523248854753575 0.0054976131292786634
0.13144205161773825 -0.007734093966595174 0.009395273110787321
0.12847727406263962 -0.01700113472606035 0.01543834054144845
0.14179177512176028 0.006572271054446131 -0.010861018590746108
0.14398270338962202 0.0015672250649973326 -0.00400484496728768
0.14411934134978754 0.0002476051584900942 -0.0019094606354782616
0.14372193204079878 3.697262925030953e-05 -0.0010130082068525881
0.14350885078355868 -0.00010555512997136905 -0.00020710097969272524
0.14352836781401274 -0.00023139506086605218 0.0005612131626058796
0.14375541852532037 -0.0003989223796322026 0.0013942814703200215
0.14413092907518466 -0.0006931598137039845 0.002412536784099156
0.14437476580166508 -0.0014559468340911335 0.00402427145685722
0.1434404446349593 -0.003282772930296952 0.006723325648110465
0.13981705130678318 -0.0073148828911993365 0.012883782410458771
0.15000000000000002 0.0 0.0
0.15000000000000002 0.0 0.0
0.15000000000000002 0.0 0.0
0.15000000000000002 0.0 0.0
0.15000000000000002 0.0 0.0
0.15000000000000002 0.0 0.0
0.15000000000000002 0.0 0.0
0.15000000000000002 0.0 0.0
0.15000000000000002 0.0 0.0
0.15000000000000002 0.0 0.0
0.15000000000000002 0.0 0.0
0.0 0.0 0.0
0.0 0.0 0.0
0.0 0.0 0.0
0.0 0.0 0.0
0.0 0.0 0.0
0.0 0.0 0.0
0.0 0.0 0.0
0.0 0.0 0.0
0.0 0.0 0.0
0.0 0.0 0.0
0.0 0.0 0.0
0.01300273093753557 0.00616232705023977 0.00758183591000971
0.008862036911563329 0.0021383923422666506 0.004428869645369772
0.007314417252606865 0.0008806420481221948 0.0026102216148253753
0.0070111962889870824 0.00029180561895763543 0.0015209235852472881
0.007087894416138541 0.00014793408217070062 0.0008439314140093121
0.007175431865228388 8.136987168643739e-05 0.0003116643106903142
0.007198683753837505 2.7572660188086395e-05 -0.0001690691346582608
0.007172243462729428 -3.36694006885635e-05 -0.0006548035124950746
0.007266832264783857 -0.00020894120372969818 -0.0013155193572462931
0.008291584320329708 -0.0013013853131108055 -0.002871451419127157
0.011714371920084439 -0.006349868221595948 -0.006126482364688669
0.026275685140919824 0.01615653480250773 0.01041267025934461
0.021761040871746754 0.007126689930284352 0.0069262055575951016
0.01962710174826726 0.002730935146543995 0.004167057602122985
0.019117621190108274 0.0010567446168946325 0.0025456389036704087
0.019137023373634356 0.000488068144596446 0.001419558727155394
0.019251136311887608 0.00018794674876096375 0.0005356050772178142
0.0193444632489082 -8.363602384556757e-05 -0.0002478194445103418
0.019486596161580595 -0.00048232061179624594 -0.0010609887510501887
0.01999024421347724 -0.0013646529823789872 -0.002078688932397445
0.02143764499156202 -0.0050896548963813 -0.004191054683014676
0.024037015816071875 -0.015467164700735227 -0.0073404441527010695
0.04172709564079036 0.023794398857589077 0.00930318091864623
0.03815546928241463 0.011302890473131981 0.006516867161106334
0.03634718114805055 0.004477570034121145 0.004213992642275632
0.03582081136386284 0.0018778843915518884 0.0026624558182350017
0.03579651179142945 0.0008073733367113658 0.0015359455523770724
0.0359473544923026 0.00019309629390919594 0.0006661427099635633
0.036145719944081674 -0.00038911395656768944 -7.715676703746926e-05
0.0364555017190427 -0.0013057924668391687 -0.0008269034419776647
0.03711613406910323 -0.003233668676140806 -0.0017439914081808087
0.03808126585594998 -0.00894471466615241 -0.0031242575247790857
0.03888133747739218 -0.02259061351004008 -0.005185933107305958
0.05899133223729265 0.027774904200057945 0.00587142119069677
0.05654753543424916 0.013237381517522394 0.004313011515674741
0.05538700977558694 0.005536263451657499 0.0030014784949937657
0.055025278048984425 0.002444014891089483 0.0020124593341351
0.05501243309566624 0.0009768984249748285 0.001251699266673845
0.05516386808376489 0.00010272917090644581 0.0007104857389782638
0.05536984460043449 -0.000750722795156522 0.00030203121372861187
0.055633600254212726 -0.0021348782858434906 -5.547430293729419e-05
0.05602837273643728 -0.0049096969005896106 -0.00044575690750893574
0.05629579737152628 -0.011692616696207421 -0.0008882239628404183
0.055653360799524446 -0.02684443643691696 -0.001683755671135107
0.07713589249384215 0.028499232898813055 0.001711051288152996
0.07557957057393497 0.013146874263971077 0.001537613416194466
0.07505577181953095 0.00570995053350373 0.0012349279821162282
0.07492720820494692 0.002555487745586034 0.0009554106675597307
0.0749316855382508 0.0009662766969294294 0.000757125808358156
0.07500000000000007 6.740428336301254e-18 0.0006924942600151564
0.07506831446174937 -0.0009662766969294247 0.0007571258083581989
0.07507279179505323 -0.0025554877455860217 0.0009554106675598046
0.07494422818046917 -0.005709950533503738 0.0012349279821162902
0.07442042942606517 -0.013146874263971129 0.0015376134161945304
0.07286410750615797 -0.028499232898813075 0.0017110512881530905
0.09434663920047576 0.026844436436916922 -0.0016837556711351968
0.0937042026284739 0.011692616696207392 -0.0008882239628404949
0.09397162726356287 0.004909696900589575 -0.0004457569075090145
0.0943663997457874 0.0021348782858435257 -5.547430293736586e-05
0.09463015539956561 0.0007507227951565464 0.0003020312137285761
0.09483613191623516 -0.00010272917090641432 0.0007104857389782642
0.09498756690433381 -0.000976898424974832 0.001251699266673891
0.09497472195101561 -0.0024440148910894457 0.0020124593341351604
0.09461299022441315 -0.005536263451657518 0.0030014784949938186
0.0934524645657509 -0.013237381517522384 0.004313011515674767
0.09100866776270744 -0.02777490420005792 0.005871421190696824
0.11111866252260796 0.02259061351004002 -0.005185933107306011
0.11191873414405018 0.0089447146661524 -0.0031242575247791356
0.1128838659308969 0.0032336686761407834 -0.0017439914081808588
0.11354449828095738 0.0013057924668392164 -0.000826903441977727
0.11385428005591838 0.00038911395656771166 -7.715676703751515e-05
0.11405264550769748 -0.00019309629390917333 0.0006661427099635764
0.11420348820857065 -0.0008073733367113406 0.001535945552377108
0.11417918863613725 -0.001877884391551873 0.0026624558182350416
0.1136528188519495 -0.0044775700341211176 0.0042139926422756855
0.11184453071758545 -0.011302890473131969 0.006516867161106395
0.10827290435920975 -0.023794398857589074 0.009303180918646271
0.1259629841839282 0.015467164700735175 -0.007340444152701084
0.12856235500843807 0.005089654896381294 -0.004191054683014707
0.13000975578652285 0.0013646529823789731 -0.0020786889323974726
0.13051340383841953 0.0004823206117962781 -0.0010609887510502015
0.13065553675109193 8.363602384554519e-05 -0.0002478194445103371
0.1307488636881125 -0.00018794674876095727 0.0005356050772178268
0.13086297662636578 -0.0004880681445964477 0.0014195587271554106
0.1308823788098919 -0.0010567446168945945 0.0025456389036704395
0.13037289825173293 -0.002730935146543951 0.004167057602123006
0.1282389591282534 -0.00712668993028434 0.006926205557595118
0.12372431485908031 -0.016156534802507762 0.010412670259344637
0.1382856280799155 0.0063498682215959255 -0.006126482364688643
0.14170841567967024 0.001301385313110816 -0.002871451419127177
0.1427331677352161 0.00020894120372967495 -0.0013155193572463178
0.1428277565372706 3.366940068858163e-05 -0.0006548035124950795
0.1428013162461625 -2.7572660188111854e-05 -0.00016906913465826668
0.14282456813477157 -8.136987168641593e-05 0.00031166431069031735
0.14291210558386147 -0.00014793408217070856 0.0008439314140093206
0.14298880371101289 -0.0002918056189576273 0.0015209235852472942
0.14268558274739312 -0.0008806420481221498 0.002610221614825395
0.1411379630884367 -0.002138392342266637 0.004428869645369788
0.1369972690624645 -0.006162327050239784 0.007581835910009757
0.15000000000000002 0.0 0.0
0.15000000000000002 0.0 0.0
0.15000000000000002 0.0 0.0
0.15000000000000002 0.0 0.0
0.15000000000000002 0.0 0.0
0.15000000000000002 0.0 0.0
0.15000000000000002 0.0 0.0
0.15000000000000002 0.0 0.0
0.15000000000000002 0.0 0.0
0.15000000000000002 0.0 0.0
0.15000000000000002 0.0 0.0
0.0 0.0 0.0
0.0 0.0 0.0
0.0 0.0 0.0
0.0 0.0 0.0
0.0 0.0 0.0
0.0 0.0 0.0
0.0 0.0 0.0
0.0 0.0 0.0
0.0 0.0 0.0
0.0 0.0 0.0
0.0 0.0 0.0
0.014716602471689547 0.0065034571448828234 0.004361428372006733
0.009476208764165524 0.0022059465303156597 0.0029113971245605316
0.0077419464031870345 0.0009367520133297622 0.0018602527257970732
0.007328450578042687 0.00029166653386874413 0.0010836386885910586
0.007333176013028884 0.00012761816071565053 0.0005797982326583542
0.007380127156777215 6.0641883161639405e-05 0.00020356935888634454
0.007406195256346031 2.506361771563003e-06 -0.00012554954306358352
0.007443262275156539 -6.190703987855032e-05 -0.0004705645451123267
0.007630648038703985 -0.0003329621077030928 -0.0010148676306822846
0.008819347882336301 -0.0015353410145124342 -0.0019185935368543437
0.01335942632508901 -0.006790333415282996 -0.0033446777604495418
0.028099357098632365 0.016022211541012906 0.006529352971207726
0.0231345244596996 0.007135924151860708 0.004697749750256094
0.02069875225789998 0.0027325589757419217 0.0029902859525719966
0.01993518539337412 0.0009886350368574878 0.001803095790965333
0.019767539407881805 0.00040697497559015136 0.0009867267411551354
0.01978880158641471 0.00012317803420926928 0.000369679197059753
0.01990127654208028 -0.00014830754199562785 -0.00016600730299317734
0.02018643620794123 -0.0005469904845761354 -0.0007317766848903998
0.020908425842118966 -0.001575649923785164 -0.0015285256920656368
0.02260321088491485 -0.005637583632950746 -0.0028882361220727466
0.025737853537197944 -0.01564211446931403 -0.00444162840962521
0.04348877091833189 0.023398394570847365 0.006137104810267796
0.0395532485499183 0.011510289992310999 0.00458119234982933
0.03741051419889953 0.0046821758373709966 0.003048596002306242
0.03659106353791377 0.0018864900563349365 0.0019093718171950733
0.03637856601775669 0.0007725176376505274 0.0010953539461699665
0.03642774284635149 0.0001333239174593682 0.0004775240145391779
0.03662496568046068 -0.0004897241634205745 -4.177118861628835e-05
0.03703524301764201 -0.0014519698798282454 -0.0005703867902951966
0.037866635833486095 -0.0035702814768901418 -0.001247636745788322
0.03899694405157719 -0.00977528996705864 -0.0022310565486881404
0.04031857778502654 -0.02265935434830635 -0.0033350923860326117
0.060161454367734665 0.02759985192759944 0.0039843852241800886
0.05754307940256493 0.013901854293139466 0.0030929387847186164
0.05612626484329841 0.005911879818973447 0.002173942677566065
0.055567088228523735 0.0025704805044358186 0.0014545294401997581
0.05540818878494311 0.0010139429559343784 0.0009100438101538979
0.0554692682554426 6.232737647801416e-05 0.0005214795668843896
0.05564373308972384 -0.0008773232869762498 0.00023455009410703974
0.05593118976150551 -0.0023622806475521617 -1.8013349593186612e-05
0.05637996678752223 -0.0053318009270345535 -0.0002964776745949352
0.05666278511459738 -0.012772767507177275 -0.0006238103264243035
0.05636498468707975 -0.027024676000427877 -0.001029914804377156
0.07737101266246613 0.02861310182999266 0.0011298635341448434
0.07590266299915062 0.014176332750928425 0.0010787655115497138
0.07524602314183287 0.006150107822102667 0.0009101874440289016
0.07505229216400072 0.002775600844739284 0.0007131618736573189
0.07499286876662122 0.0010700953123878429 0.0005734859246373657
0.07500000000000005 -5.231184829430006e-18 0.0005247849644256009
0.07500713123337892 -0.0010700953123878223 0.0005734859246373919
0.07494770783599948 -0.0027756008447392855 0.0007131618736573805
0.07475397685816736 -0.006150107822102697 0.0009101874440289625
0.07409733700084956 -0.014176332750928448 0.00107876551154977
0.07262898733753405 -0.0286131018299927 0.0011298635341449085
0.09363501531292046 0.027024676000427825 -0.0010299148043772276
0.09333721488540281 0.012772767507177233 -0.0006238103264243551
0.09362003321247789 0.005331800927034534 -0.0002964776745949708
0.09406881023849455 0.0023622806475521894 -1.8013349593247192e-05
0.09435626691027621 0.0008773232869762739 0.0002345500941070056
0.0945307317445574 -6.232737647799501e-05 0.0005214795668843954
0.09459181121505689 -0.0010139429559343715 0.0009100438101539446
0.09443291177147628 -0.0025704805044358004 0.0014545294401998024
0.09387373515670161 -0.005911879818973441 0.0021739426775660934
0.0924569205974351 -0.01390185429313948 0.0030929387847186563
0.08983854563226537 -0.02759985192759945 0.003984385224180128
0.10968142221497362 0.022659354348306297 -0.003335092386032657
0.11100305594842294 0.009775289967058606 -0.0022310565486881742
0.11213336416651407 0.003570281476890096 -0.0012476367457883515
0.11296475698235818 0.001451969879828284 -0.0005703867902952276
0.11337503431953944 0.0004897241634206147 -4.17711886162974e-05
0.1135722571536486 -0.00013332391745933775 0.0004775240145391675
0.11362143398224343 -0.0007725176376505273 0.0010953539461699806
0.11340893646208636 -0.0018864900563349155 0.001909371817195104
0.1125894858011006 -0.004682175837370984 0.0030485960023062825
0.1104467514500818 -0.011510289992311 0.004581192349829362
0.10651122908166821 -0.02339839457084736 0.006137104810267836
0.12426214646280215 0.015642114469313993 -0.00444162840962521
0.12739678911508517 0.005637583632950731 -0.0028882361220727666
0.12909157415788103 0.0015756499237851197 -0.0015285256920656784
0.12981356379205877 0.0005469904845761583 -0.0007317766848904229
0.13009872345791978 0.00014830754199565878 -0.00016600730299316796
0.1302111984135854 -0.00012317803420925668 0.0003696791970597791
0.13023246059211835 -0.0004069749755901679 0.000986726741155139
0.13006481460662603 -0.0009886350368574735 0.0018030957909653486
0.12930124774210014 -0.0027325589757418727 0.0029902859525720304
0.12686547554030053 -0.007135924151860696 0.00469774975025613
0.12190064290136779 -0.01602221154101291 0.006529352971207764
0.136640573674911 0.006790333415282989 -0.00334467776044952
0.1411806521176637 0.0015353410145124335 -0.0019185935368543627
0.142369351961296 0.000332962107703071 -0.0010148676306823267
0.1425567377248434 6.190703987853883e-05 -0.00047056454511234115
0.14259380474365396 -2.506361771556928e-06 -0.00012554954306357986
0.1426198728432228 -6.064188316162962e-05 0.00020356935888634194
0.1426668239869711 -0.00012761816071565828 0.0005797982326583721
0.14267154942195728 -0.0002916665338687227 0.001083638688591089
0.14225805359681296 -0.0009367520133297203 0.0018602527257971042