# vtk DataFile Version 3.0
Some data
ASCII
DATASET UNSTRUCTURED_GRID
POINTS 7930 float
0.0 0.0 0.0
0.0 10.0 0.0
10.0 10.0 0.0
10.0 0.0 0.0
0.5 0.0 0.0
0.0009999999999981016 0.0 0.0
0.001999999999996203 0.0 0.0
0.002999999999994305 0.0 0.0
0.003999999999992409 0.0 0.0
0.004999999999990531 0.0 0.0
0.005999999999988653 0.0 0.0
0.006999999999986775 0.0 0.0
0.007999999999984898 0.0 0.0
0.008999999999983018 0.0 0.0
0.009999999999981142 0.0 0.0
0.01099999999997926 0.0 0.0
0.01199999999997736 0.0 0.0
0.0129999999999754 0.0 0.0
0.01399999999997343 0.0 0.0
0.01499999999997147 0.0 0.0
0.01599999999996944 0.0 0.0
0.0169999999999673 0.0 0.0
0.01799999999996516 0.0 0.0
0.01899999999996302 0.0 0.0
0.01999999999996084 0.0 0.0
0.02099999999995862 0.0 0.0
0.02199999999995639 0.0 0.0
0.02299999999995417 0.0 0.0
0.02399999999995195 0.0 0.0
0.02499999999994972 0.0 0.0
0.0259999999999475 0.0 0.0
0.02699999999994527 0.0 0.0
0.02799999999994315 0.0 0.0
0.0289999999999411 0.0 0.0
0.02999999999993905 0.0 0.0
0.030999999999937 0.0 0.0
0.03199999999993521 0.0 0.0
0.0329999999999335 0.0 0.0
0.0339999999999318 0.0 0.0
0.03499999999993009 0.0 0.0
0.03599999999992853 0.0 0.0
0.036999999999927 0.0 0.0
0.03799999999992547 0.0 0.0
0.03899999999992394 0.0 0.0
0.03999999999992241 0.0 0.0
0.04099999999992088 0.0 0.0
0.04199999999991934 0.0 0.0
0.04299999999991782 0.0 0.0
0.04399999999991629 0.0 0.0
0.04499999999991475 0.0 0.0
0.04599999999991322 0.0 0.0
0.0469999999999117 0.0 0.0
0.04799999999991016 0.0 0.0
0.04899999999990863 0.0 0.0
0.0499999999999071 0.0 0.0
0.05099999999990557 0.0 0.0
0.05199999999990404 0.0 0.0
0.05299999999990251 0.0 0.0
0.05399999999990097 0.0 0.0
0.05499999999989943 0.0 0.0
0.05599999999989791 0.0 0.0
0.05699999999989638 0.0 0.0
0.05799999999989484 0.0 0.0
0.05899999999989317 0.0 0.0
0.05999999999989129 0.0 0.0
0.06099999999988941 0.0 0.0
0.06199999999988753 0.0 0.0
0.06299999999988531 0.0 0.0
0.06399999999988273 0.0 0.0
0.06499999999988015 0.0 0.0
0.06599999999987759 0.0 0.0
0.0669999999998748 0.0 0.0
0.06799999999987189 0.0 0.0
0.06899999999986897 0.0 0.0
0.06999999999986604 0.0 0.0
0.07099999999986313 0.0 0.0
0.0719999999998602 0.0 0.0
0.07299999999985729 0.0 0.0
0.07399999999985438 0.0 0.0
0.07499999999985145 0.0 0.0
0.07599999999984854 0.0 0.0
0.07699999999984562 0.0 0.0
0.0779999999998427 0.0 0.0
0.07899999999983978 0.0 0.0
0.07999999999983685 0.0 0.0
0.08099999999983394 0.0 0.0
0.08199999999983103 0.0 0.0
0.0829999999998281 0.0 0.0
0.08399999999982519 0.0 0.0
0.08499999999982226 0.0 0.0
0.08599999999981935 0.0 0.0
0.08699999999981643 0.0 0.0
0.0879999999998135 0.0 0.0
0.08899999999981059 0.0 0.0
0.08999999999980766 0.0 0.0
0.09099999999980475 0.0 0.0
0.09199999999980184 0.0 0.0
0.09299999999979891 0.0 0.0
0.093999999999796 0.0 0.0
0.09499999999979307 0.0 0.0
0.09599999999979016 0.0 0.0
0.09699999999978724 0.0 0.0
0.09799999999978432 0.0 0.0
0.0989999999997814 0.0 0.0
0.09999999999977847 0.0 0.0
0.1009999999997756 0.0 0.0
0.1019999999997726 0.0 0.0
0.1029999999997697 0.0 0.0
0.1039999999997668 0.0 0.0
0.1049999999997639 0.0 0.0
0.105999999999761 0.0 0.0
0.106999999999758 0.0 0.0
0.1079999999997551 0.0 0.0
0.1089999999997522 0.0 0.0
0.1099999999997493 0.0 0.0
0.1109999999997464 0.0 0.0
0.1119999999997434 0.0 0.0
0.1129999999997405 0.0 0.0
0.1139999999997376 0.0 0.0
0.1149999999997347 0.0 0.0
0.1159999999997318 0.0 0.0
0.1169999999997288 0.0 0.0
0.1179999999997259 0.0 0.0
0.118999999999723 0.0 0.0
0.1199999999997201 0.0 0.0
0.1209999999997172 0.0 0.0
0.1219999999997143 0.0 0.0
0.1229999999997113 0.0 0.0
0.1239999999997084 0.0 0.0
0.1249999999997055 0.0 0.0
0.1259999999997026 0.0 0.0
0.1269999999996997 0.0 0.0
0.1279999999996967 0.0 0.0
0.1289999999996938 0.0 0.0
0.1299999999996909 0.0 0.0
0.130999999999688 0.0 0.0
0.1319999999996851 0.0 0.0
0.1329999999996822 0.0 0.0
0.1339999999996792 0.0 0.0
0.1349999999996764 0.0 0.0
0.1359999999996734 0.0 0.0
0.1369999999996705 0.0 0.0
0.1379999999996676 0.0 0.0
0.1389999999996647 0.0 0.0
0.1399999999996618 0.0 0.0
0.1409999999996588 0.0 0.0
0.1419999999996559 0.0 0.0
0.142999999999653 0.0 0.0
0.1439999999996501 0.0 0.0
0.1449999999996472 0.0 0.0
0.1459999999996442 0.0 0.0
0.1469999999996414 0.0 0.0
0.1479999999996384 0.0 0.0
0.1489999999996355 0.0 0.0
0.1499999999996326 0.0 0.0
0.1509999999996297 0.0 0.0
0.1519999999996268 0.0 0.0
0.1529999999996239 0.0 0.0
0.1539999999996209 0.0 0.0
0.154999999999618 0.0 0.0
0.1559999999996151 0.0 0.0
0.1569999999996122 0.0 0.0
0.1579999999996093 0.0 0.0
0.1589999999996064 0.0 0.0
0.1599999999996035 0.0 0.0
0.1609999999996005 0.0 0.0
0.1619999999995976 0.0 0.0
0.1629999999995947 0.0 0.0
0.1639999999995918 0.0 0.0
0.1649999999995889 0.0 0.0
0.165999999999586 0.0 0.0
0.1669999999995831 0.0 0.0
0.1679999999995801 0.0 0.0
0.1689999999995772 0.0 0.0
0.1699999999995743 0.0 0.0
0.1709999999995714 0.0 0.0
0.1719999999995685 0.0 0.0
0.1729999999995655 0.0 0.0
0.1739999999995626 0.0 0.0
0.1749999999995597 0.0 0.0
0.1759999999995568 0.0 0.0
0.1769999999995539 0.0 0.0
0.177999999999551 0.0 0.0
0.178999999999548 0.0 0.0
0.1799999999995451 0.0 0.0
0.1809999999995422 0.0 0.0
0.1819999999995393 0.0 0.0
0.1829999999995364 0.0 0.0
0.1839999999995335 0.0 0.0
0.1849999999995305 0.0 0.0
0.1859999999995277 0.0 0.0
0.1869999999995247 0.0 0.0
0.1879999999995218 0.0 0.0
0.1889999999995189 0.0 0.0
0.189999999999516 0.0 0.0
0.1909999999995131 0.0 0.0
0.1919999999995101 0.0 0.0
0.1929999999995072 0.0 0.0
0.1939999999995043 0.0 0.0
0.1949999999995014 0.0 0.0
0.1959999999994985 0.0 0.0
0.1969999999994956 0.0 0.0
0.1979999999994927 0.0 0.0
0.1989999999994897 0.0 0.0
0.1999999999994868 0.0 0.0
0.2009999999994839 0.0 0.0
0.201999999999481 0.0 0.0
0.2029999999994781 0.0 0.0
0.2039999999994752 0.0 0.0
0.2049999999994722 0.0 0.0
0.2059999999994693 0.0 0.0
0.2069999999994664 0.0 0.0
0.2079999999994635 0.0 0.0
0.2089999999994606 0.0 0.0
0.2099999999994577 0.0 0.0
0.2109999999994548 0.0 0.0
0.2119999999994518 0.0 0.0
0.2129999999994489 0.0 0.0
0.213999999999446 0.0 0.0
0.2149999999994431 0.0 0.0
0.2159999999994402 0.0 0.0
0.2169999999994373 0.0 0.0
0.2179999999994343 0.0 0.0
0.2189999999994314 0.0 0.0
0.2199999999994285 0.0 0.0
0.2209999999994256 0.0 0.0
0.2219999999994227 0.0 0.0
0.2229999999994198 0.0 0.0
0.2239999999994168 0.0 0.0
0.2249999999994139 0.0 0.0
0.225999999999411 0.0 0.0
0.2269999999994081 0.0 0.0
0.2279999999994052 0.0 0.0
0.2289999999994023 0.0 0.0
0.2299999999993994 0.0 0.0
0.2309999999993964 0.0 0.0
0.2319999999993935 0.0 0.0
0.2329999999993906 0.0 0.0
0.2339999999993877 0.0 0.0
0.2349999999993848 0.0 0.0
0.2359999999993818 0.0 0.0
0.236999999999379 0.0 0.0
0.237999999999376 0.0 0.0
0.2389999999993731 0.0 0.0
0.2399999999993702 0.0 0.0
0.2409999999993673 0.0 0.0
0.2419999999993644 0.0 0.0
0.2429999999993615 0.0 0.0
0.2439999999993585 0.0 0.0
0.2449999999993556 0.0 0.0
0.2459999999993527 0.0 0.0
0.246999999999351 0.0 0.0
0.2479999999993495 0.0 0.0
0.248999999999348 0.0 0.0
0.2499999999993464 0.0 0.0
0.2509999999993477 0.0 0.0
0.2519999999993489 0.0 0.0
0.2529999999993502 0.0 0.0
0.2539999999993516 0.0 0.0
0.2549999999993542 0.0 0.0
0.2559999999993569 0.0 0.0
0.2569999999993595 0.0 0.0
0.2579999999993621 0.0 0.0
0.2589999999993647 0.0 0.0
0.2599999999993673 0.0 0.0
0.26099999999937 0.0 0.0
0.2619999999993726 0.0 0.0
0.2629999999993753 0.0 0.0
0.2639999999993779 0.0 0.0
0.2649999999993806 0.0 0.0
0.2659999999993832 0.0 0.0
0.2669999999993858 0.0 0.0
0.2679999999993884 0.0 0.0
0.2689999999993911 0.0 0.0
0.2699999999993937 0.0 0.0
0.2709999999993963 0.0 0.0
0.271999999999399 0.0 0.0
0.2729999999994017 0.0 0.0
0.2739999999994043 0.0 0.0
0.2749999999994069 0.0 0.0
0.2759999999994096 0.0 0.0
0.2769999999994122 0.0 0.0
0.2779999999994148 0.0 0.0
0.2789999999994174 0.0 0.0
0.2799999999994201 0.0 0.0
0.2809999999994228 0.0 0.0
0.2819999999994254 0.0 0.0
0.282999999999428 0.0 0.0
0.2839999999994306 0.0 0.0
0.2849999999994333 0.0 0.0
0.2859999999994359 0.0 0.0
0.2869999999994385 0.0 0.0
0.2879999999994411 0.0 0.0
0.2889999999994439 0.0 0.0
0.2899999999994465 0.0 0.0
0.2909999999994491 0.0 0.0
0.2919999999994517 0.0 0.0
0.2929999999994544 0.0 0.0
0.293999999999457 0.0 0.0
0.2949999999994596 0.0 0.0
0.2959999999994622 0.0 0.0
0.2969999999994649 0.0 0.0
0.2979999999994676 0.0 0.0
0.2989999999994702 0.0 0.0
0.2999999999994728 0.0 0.0
0.3009999999994754 0.0 0.0
0.3019999999994781 0.0 0.0
0.3029999999994807 0.0 0.0
0.3039999999994834 0.0 0.0
0.304999999999486 0.0 0.0
0.3059999999994886 0.0 0.0
0.3069999999994913 0.0 0.0
0.3079999999994939 0.0 0.0
0.3089999999994965 0.0 0.0
0.3099999999994992 0.0 0.0
0.3109999999995018 0.0 0.0
0.3119999999995045 0.0 0.0
0.3129999999995071 0.0 0.0
0.3139999999995097 0.0 0.0
0.3149999999995123 0.0 0.0
0.315999999999515 0.0 0.0
0.3169999999995176 0.0 0.0
0.3179999999995203 0.0 0.0
0.3189999999995229 0.0 0.0
0.3199999999995256 0.0 0.0
0.3209999999995282 0.0 0.0
0.3219999999995308 0.0 0.0
0.3229999999995334 0.0 0.0
0.323999999999536 0.0 0.0
0.3249999999995387 0.0 0.0
0.3259999999995414 0.0 0.0
0.326999999999544 0.0 0.0
0.3279999999995466 0.0 0.0
0.3289999999995493 0.0 0.0
0.3299999999995519 0.0 0.0
0.3309999999995545 0.0 0.0
0.3319999999995571 0.0 0.0
0.3329999999995598 0.0 0.0
0.3339999999995625 0.0 0.0
0.3349999999995651 0.0 0.0
0.3359999999995677 0.0 0.0
0.3369999999995703 0.0 0.0
0.337999999999573 0.0 0.0
0.3389999999995756 0.0 0.0
0.3399999999995783 0.0 0.0
0.3409999999995809 0.0 0.0
0.3419999999995835 0.0 0.0
0.3429999999995862 0.0 0.0
0.3439999999995888 0.0 0.0
0.3449999999995914 0.0 0.0
0.345999999999594 0.0 0.0
0.3469999999995967 0.0 0.0
0.3479999999995994 0.0 0.0
0.348999999999602 0.0 0.0
0.3499999999996046 0.0 0.0
0.3509999999996072 0.0 0.0
0.3519999999996099 0.0 0.0
0.3529999999996125 0.0 0.0
0.3539999999996151 0.0 0.0
0.3549999999996178 0.0 0.0
0.3559999999996205 0.0 0.0
0.3569999999996231 0.0 0.0
0.3579999999996257 0.0 0.0
0.3589999999996283 0.0 0.0
0.359999999999631 0.0 0.0
0.3609999999996336 0.0 0.0
0.3619999999996362 0.0 0.0
[...]
POINT_DATA 7930
SCALARS Disp float 2
LOOKUP_TABLE default
0.0 0.0009180375663871305
0.0 0.1
0.0 0.1
0.0 0.0
3.946729037266494e-10 0.0
-6.848108185730268e-06 0.0009178446891518823
-1.3605902833902129e-05 0.0009168818667131034
-2.031929785082706e-05 0.0009157445209278325
-2.7357703372990784e-05 0.0009146537812639834
-3.43618103953941e-05 0.0009124399081631963
-4.1009672713688086e-05 0.0009085179120683514
-4.7327877534388216e-05 0.0009052883327078484
-5.413038381258255e-05 0.0009032606474863093
-6.147946404080082e-05 0.0008993815042753218
-6.839426697382774e-05 0.0008932859708443451
-7.47074925791303e-05 0.0008873183853945182
-8.146631402367753e-05 0.0008832095164738425
-8.894528345609636e-05 0.0008777877928649571
-9.576192775325975e-05 0.0008692537211428458
-0.00010190746769921722 0.0008609100181869935
-0.00010855807242809165 0.0008549027573478748
-0.00011626324572316139 0.0008474774238598184
-0.00012352694401284594 0.0008362311490882412
-0.00012949658499260782 0.0008248683102933017
-0.00013602917565849678 0.0008165534450602484
-0.0001436784165008759 0.0008067416204582152
-0.00015093218608152505 0.0007924920786660273
-0.000156819332744519 0.0007779698839511304
-0.00016294801620807094 0.0007668032485367471
-0.00017061413659780235 0.0007549829719157164
-0.00017805238002803912 0.0007375020689696519
-0.00018412652319284 0.0007193500812719876
-0.0001904203863329216 0.0007043790300925374
-0.0001979696429720209 0.000688461398524286
-0.00020572929761395703 0.0006667728785891345
-0.00021182553680120135 0.000643436139451646
-0.000217950934334756 0.0006234718734915511
-0.00022550115106401085 0.0006026430911254997
-0.00023252139915634761 0.0005753560883540279
-0.00023863042703009578 0.0005454536038537545
-0.0002448208194439673 0.0005182190333981826
-0.00025212246860396306 0.0004894679113977866
-0.00026027111716308676 0.00045211975463135227
-0.00026611546778413856 0.0004094181736628042
-0.00027218964965906227 0.0003666902066598738
-0.0002794132591073202 0.0003172476234455245
-0.00028366910775769243 0.00025195771745371257
-0.000284413727655876 0.00016364258409427794
-0.0002617247526914441 0.0
-0.0002348173815726417 0.0
-0.00021271149853295207 0.0
-0.00019784533267858128 0.0
-0.00018614037722869498 0.0
-0.00017617124145601808 0.0
-0.00016770129524283704 0.0
-0.00016021451219789713 0.0
-0.00015364584232086358 0.0
-0.0001477045227523988 0.0
-0.0001419824369925557 0.0
-0.00013690288060009642 0.0
-0.0001322355575946218 0.0
-0.00012790271448499666 0.0
-0.00012383375349843165 0.0
-0.00012004097082523658 0.0
-0.00011647339467192658 0.0
-0.00011308208567471625 0.0
-0.00010987924967159085 0.0
-0.00010683766613870096 0.0
-0.0001039302412212849 0.0
-0.0001011607653703696 0.0
-9.851991449026689e-05 0.0
-9.598184779896329e-05 0.0
-9.354242591794213e-05 0.0
-9.120432131810448e-05 0.0
-8.896004995678918e-05 0.0
-8.679039621512098e-05 0.0
-8.470048887118321e-05 0.0
-8.268450842683294e-05 0.0
-8.072995644650588e-05 0.0
-7.884584841699417e-05 0.0
-7.702923392196812e-05 0.0
-7.527449315753369e-05 0.0
-7.357984723939971e-05 0.0
-7.193552779166506e-05 0.0
-7.034729908823631e-05 0.0
-6.881096073276652e-05 0.0
-6.732022966221996e-05 0.0
-6.587424172949182e-05 0.0
-6.44756437714466e-05 0.0
-6.311249565245474e-05 0.0
-6.178513601021293e-05 0.0
-6.049630328513408e-05 0.0
-5.924185469591877e-05 0.0
-5.802150936001862e-05 0.0
-5.682918616208644e-05 0.0
-5.566610976197958e-05 0.0
-5.453069896639024e-05 0.0
-5.342050170994225e-05 0.0
-5.2335859165659156e-05 0.0
-5.127787302157802e-05 0.0
-5.024345976963194e-05 0.0
-4.92293851393834e-05 0.0
-4.82380962477261e-05 0.0
-4.726626346093986e-05 0.0
-4.631751369105198e-05 0.0
-4.5388835632509525e-05 0.0
-4.4482043309853336e-05 0.0
-4.359568478133467e-05 0.0
-4.2729298536676313e-05 0.0
-4.188203251895725e-05 0.0
-4.1049209771249605e-05 0.0
-4.023675023315668e-05 0.0
-3.944607804816495e-05 0.0
-3.866261930021684e-05 0.0
-3.78988962228501e-05 0.0
-3.715098456379314e-05 0.0
-3.641551289508285e-05 0.0
-3.569442565091716e-05 0.0
-3.498678401978103e-05 0.0
-3.429041098958306e-05 0.0
-3.360670516641407e-05 0.0
-3.293562159988651e-05 0.0
-3.2276292233801e-05 0.0
-3.163089004552139e-05 0.0
-3.0989577794064436e-05 0.0
-3.0362450166509553e-05 0.0
-2.974412500815342e-05 0.0
-2.9137526429131284e-05 0.0
-2.853817724057149e-05 0.0
-2.7949456471739e-05 0.0
-2.73700729887462e-05 0.0
-2.6800128399574892e-05 0.0
-2.623899437726546e-05 0.0
-2.5687177424290263e-05 0.0
-2.5144239097761215e-05 0.0
-2.461009783243657e-05 0.0
-2.4084429940292378e-05 0.0
-2.3568272272458504e-05 0.0
-2.3061786611297175e-05 0.0
-2.2560299922555176e-05 0.0
-2.2068415383532546e-05 0.0
-2.1583866248312637e-05 0.0
-2.110711348719448e-05 0.0
-2.0637448861104768e-05 0.0
-2.017497703666329e-05 0.0
-1.971990033676794e-05 0.0
-1.9271830311878157e-05 0.0
-1.8830544283990034e-05 0.0
-1.83952196335465e-05 0.0
-1.7966520283071302e-05 0.0
-1.754426762570129e-05 0.0
-1.7127892866231312e-05 0.0
-1.6717575808903206e-05 0.0
-1.6312946941232352e-05 0.0
-1.5913731191434696e-05 0.0
-1.5520017980745396e-05 0.0
-1.5131795396259571e-05 0.0
-1.4748571483532363e-05 0.0
-1.4370264604588887e-05 0.0
-1.3997431719239515e-05 0.0
-1.363010002157374e-05 0.0
-1.3266601483934477e-05 0.0
-1.2908923637180088e-05 0.0
-1.2555805263544842e-05 0.0
-1.2207597914843644e-05 0.0
-1.1864627865068863e-05 0.0
-1.1525006877806258e-05 0.0
-1.1190770368214025e-05 0.0
-1.086136255424996e-05 0.0
-1.053665297618302e-05 0.0
-1.021657777931439e-05 0.0
-9.901110374063717e-06 0.0
-9.589984342495645e-06 0.0
-9.283267837054257e-06 0.0
-8.981133625881613e-06 0.0
-8.68327454936982e-06 0.0
-8.389757493049342e-06 0.0
-8.100817541527862e-06 0.0
-7.81634446361109e-06 0.0
-7.536088493289321e-06 0.0
-7.260123324812129e-06 0.0
-6.988571037012165e-06 0.0
-6.721252277955308e-06 0.0
-6.4578195686315555e-06 0.0
-6.198568591273111e-06 0.0
-5.943386433813865e-06 0.0
-5.692097811433731e-06 0.0
-5.444714058807395e-06 0.0
-5.201057087668385e-06 0.0
-4.961222377249459e-06 0.0
-4.724957009506656e-06 0.0
-4.49228035071569e-06 0.0
-4.263163524823466e-06 0.0
-4.037523886497925e-06 0.0
-3.815235660522563e-06 0.0
-3.5963595816859927e-06 0.0
-3.3806103625219717e-06 0.0
-3.168032620913481e-06 0.0
-2.958472498118458e-06 0.0
-2.7520996064683787e-06 0.0
-2.548842854081019e-06 0.0
-2.3483450301331495e-06 0.0
-2.150738097553752e-06 0.0
-1.956010735715006e-06 0.0
-1.764018527213995e-06 0.0
-1.5747653486915584e-06 0.0
-1.3882220977090194e-06 0.0
-1.204567426454711e-06 0.0
-1.0236624105679628e-06 0.0
-8.456474399966053e-07 0.0
-6.699167148788715e-07 0.0
-4.96994628570945e-07 0.0
-3.2674959119428097e-07 0.0
-1.5933325445075717e-07 0.0
5.28558199629274e-09 0.0
1.6697105031278612e-07 0.0
3.259118238540394e-07 0.0
4.819981036798418e-07 0.0
6.349513356807405e-07 0.0
7.84840059156376e-07 0.0
9.320198007815382e-07 0.0
1.0759705650292915e-06 0.0
1.2166265755521603e-06 0.0
1.3540018678238196e-06 0.0
1.4881724447727714e-06 0.0
1.6188134161932453e-06 0.0
1.7460664423625965e-06 0.0
1.869959244772021e-06 0.0
1.990304909558826e-06 0.0
2.107052505375573e-06 0.0
2.219970302230113e-06 0.0
2.329251524020212e-06 0.0
2.434836982504828e-06 0.0
2.5366868921890998e-06 0.0
2.635055486861563e-06 0.0
2.7294237886891362e-06 0.0
2.819900980469205e-06 0.0
2.906761538576733e-06 0.0
2.9896912147287016e-06 0.0
3.0687679867154695e-06 0.0
3.1442301056322e-06 0.0
3.2160281122216657e-06 0.0
3.2839555857441633e-06 0.0
3.3482569229361035e-06 0.0
3.4090869790551524e-06 0.0
3.4662771144594196e-06 0.0
3.5199521112844313e-06 0.0
3.570520027288531e-06 0.0
3.6176865106901384e-06 0.0
3.661511015704585e-06 0.0
3.702327213874328e-06 0.0
3.7399105730477545e-06 0.0
3.7746214699664816e-06 0.0
3.8064228279320365e-06 0.0
3.835386398631868e-06 0.0
3.861803857968386e-06 0.0
3.885629899296808e-06 0.0
3.906866091030147e-06 0.0
3.9259212784415755e-06 0.0
3.9427305325861084e-06 0.0
3.957428858814451e-06 0.0
3.970006274768478e-06 0.0
3.980608007019476e-06 0.0
3.989338103563301e-06 0.0
3.996335701925594e-06 0.0
4.001664817209136e-06 0.0
4.0054409829680685e-06 0.0
4.007695217852005e-06 0.0
4.008536686659362e-06 0.0
4.0080962959381e-06 0.0
4.006359599727377e-06 0.0
4.003401557432246e-06 0.0
3.999325999722213e-06 0.0
3.9940690482981615e-06 0.0
3.988059213759202e-06 0.0
3.980911244468548e-06 0.0
3.972792380534583e-06 0.0
3.963839799930804e-06 0.0
3.953968465851047e-06 0.0
3.94328884698414e-06 0.0
3.931742866987209e-06 0.0
3.919399194198878e-06 0.0
3.906312693365288e-06 0.0
3.892435585058337e-06 0.0
3.877848141224398e-06 0.0
3.862451595948004e-06 0.0
3.846262364108372e-06 0.0
3.829379438139239e-06 0.0
3.8117332741625597e-06 0.0
3.7933724919216877e-06 0.0
3.774254478295071e-06 0.0
3.7543322833107524e-06 0.0
3.733662726412895e-06 0.0
3.712191476242941e-06 0.0
3.6899872022407617e-06 0.0
3.66699640273864e-06 0.0
3.64322935506529e-06 0.0
3.618596878480359e-06 0.0
3.5931479218173373e-06 0.0
3.566932323091592e-06 0.0
3.5398792288210255e-06 0.0
3.512000139758825e-06 0.0
3.483290091458964e-06 0.0
3.453756800350302e-06 0.0
3.4233849194131443e-06 0.0
3.3922088726288105e-06 0.0
3.360194896087144e-06 0.0
3.3273693062217667e-06 0.0
3.2937319477859545e-06 0.0
3.2592911724370995e-06 0.0
3.224069005342246e-06 0.0
3.188075176860464e-06 0.0
3.1513495777042956e-06 0.0
3.1138931025750034e-06 0.0
3.075704399950872e-06 0.0
3.0368062594400614e-06 0.0
2.9972377283705955e-06 0.0
2.9570471632043068e-06 0.0
2.916230852212582e-06 0.0
2.8748296956977966e-06 0.0
2.832868444766179e-06 0.0
2.790356633402326e-06 0.0
2.7473430522570574e-06 0.0
2.7038720434970952e-06 0.0
2.6600004665777965e-06 0.0
2.615731465142293e-06 0.0
2.5711019240736686e-06 0.0
2.526173148101716e-06 0.0
2.480962181989034e-06 0.0
2.435504213543621e-06 0.0
2.389854750234786e-06 0.0
2.344038423002778e-06 0.0
2.2981031532349644e-06 0.0
2.25208767722593e-06 0.0
2.2060314866591134e-06 0.0
2.159972955792388e-06 0.0
2.113952698858027e-06 0.0
2.068008207093683e-06 0.0
2.0221787705714048e-06 0.0
1.9764981755750235e-06 0.0
1.9310024217210385e-06 0.0
1.8857255079905206e-06 0.0
1.840700903034262e-06 0.0
1.7959729615024802e-06 0.0
1.7515671164505095e-06 0.0
1.7075142904487266e-06 0.0
1.6638423123696244e-06 0.0
1.6205832131925996e-06 0.0
1.5777718056925238e-06 0.0
1.5354532385726656e-06 0.0
1.493599887236831e-06 0.0
1.4522815670600313e-06 0.0
1.4114867606168428e-06 0.0
1.3712247044973965e-06 0.0
1.3315734185516364e-06 0.0
1.2925539690205438e-06 0.0
1.2541077515783768e-06 0.0
1.2163107561062516e-06 0.0
1.1791423966613817e-06 0.0
1.1426380163385645e-06 0.0
1.1068505575916208e-06 0.0
1.07169459733558e-06 0.0
1.0372409670975967e-06 0.0
1.0034791693816239e-06 0.0
9.703884384037571e-07 0.0
9.380326859476618e-07 0.0
9.064079031158428e-07 0.0
8.7547625632266e-07 0.0
8.452701100852277e-07 0.0
8.157830490928683e-07 0.0
7.870093013540006e-07 0.0
7.589601134096055e-07 0.0
7.316258145140598e-07 0.0
7.049957238392143e-07 0.0
6.790688474760696e-07 0.0
6.538333365858077e-07 0.0
6.293054589039589e-07 0.0
6.054730191702462e-07 0.0
5.823212881179148e-07 0.0
5.5984898064993e-07 0.0
5.380410268276869e-07 0.0
5.169047621310222e-07 0.0
4.964118973630473e-07 0.0
4.765155869396369e-07 0.0
4.5727093523166057e-07 0.0
4.386834347540395e-07 0.0
4.206684582287863e-07 0.0
4.03217634236731e-07 0.0
3.863904777923216e-07 0.0
3.701480326474214e-07 0.0
3.544467806431469e-07 0.0
3.3928630213560854e-07 0.0
3.2466474624747836e-07 0.0
3.1054326707378707e-07 0.0
2.969520698684554e-07 0.0
2.8388267893744593e-07 0.0
2.7127234935100375e-07 0.0
2.5913164562954565e-07 0.0
2.474562996603221e-07 0.0
2.3619938381133635e-07 0.0
2.2540555956483703e-07 0.0
2.1503620463488033e-07 0.0
2.0506940881249409e-07 0.0
1.9551329508390486e-07 0.0
1.863467238362508e-07 0.0
1.7753773208538054e-07 0.0
1.690906923818737e-07 0.0
1.609970651918835e-07 0.0
1.5324638555476583e-07 0.0
1.4582098895285953e-07 0.0
1.3871209366057704e-07 0.0
1.3190929899441762e-07 0.0
1.2540420729840781e-07 0.0
1.1918158782121068e-07 0.0
1.1323425986686853e-07 0.0
1.0754844040159658e-07 0.0
1.0211382183104039e-07 0.0
9.692790696387819e-08 0.0
9.197911765110391e-08 0.0
8.725654746941456e-08 0.0
8.27547828477494e-08 0.0
7.846297995652197e-08 0.0
7.436888455152831e-08 0.0
7.046987870095386e-08 0.0
6.675385517024879e-08 0.0
6.321612281782767e-08 0.0
5.985151930668983e-08 0.0
5.6649766588846796e-08 0.0
5.359671696013859e-08 0.0
5.0701476417147234e-08 0.0
4.794895090074e-08 0.0
4.533578077473807e-08 0.0
4.285054656444518e-08 0.0
4.0490090774360044e-08 0.0
3.8249673108401146e-08 0.0
3.612317489057744e-08 0.0
3.4104734311220275e-08 0.0
3.2189172886589214e-08 0.0
3.037363141656554e-08 0.0
2.865435050804387e-08 0.0
2.7025343110139693e-08 0.0
2.548234153906326e-08 0.0
2.4022016684527347e-08 0.0
2.2639710971363818e-08 0.0
2.1328018886090235e-08 0.0
2.0089615204955834e-08 0.0
1.8919147629961484e-08 0.0
1.7812971905191576e-08 0.0
1.676653004583095e-08 0.0
1.5778795166792397e-08 0.0
1.484262531247505e-08 0.0
1.396112377244477e-08 0.0
1.3128494579996125e-08 0.0
1.2342097995034078e-08 0.0
1.160067465632743e-08 0.0
1.0900923696298163e-08 0.0
1.02403593643611e-08 0.0
9.617511909785921e-09 0.0
9.030289087756872e-09 0.0
8.476825341290816e-09 0.0
7.956822355761593e-09 0.0
7.465187381708368e-09 0.0
7.003033955250001e-09 0.0
6.567800381521132e-09 0.0
6.158411786217234e-09 0.0
5.773629896479126e-09 0.0
5.411688211856868e-09 0.0
5.070834198361641e-09 0.0
4.749672710050335e-09 0.0
4.448382136135129e-09 0.0
4.1663095902659116e-09 0.0
3.901537144743589e-09 0.0
3.651577184430046e-09 0.0
3.4171919938910756e-09 0.0
3.1969050704982837e-09 0.0
2.990261468605123e-09 0.0
2.796267918345217e-09 0.0
2.614446928179068e-09 0.0
2.4439427919937675e-09 0.0
2.2837021263772563e-09 0.0
2.1338573275951434e-09 0.0
1.9935376665268294e-09 0.0
1.862269651443403e-09 0.0
1.7390754034840654e-09 0.0
1.6236323820793794e-09 0.0
1.5154705989685243e-09 0.0
1.4143219416920886e-09 0.0
1.3200269822859623e-09 0.0
1.2313053890529906e-09 0.0
1.1484315557361969e-09 0.0
1.0709614549116002e-09 0.0
9.984403891493727e-10 0.0
9.309087041026676e-10 0.0
8.675427693927377e-10 0.0
8.082725214150591e-10 0.0
7.530119906228385e-10 0.0
7.014275233018935e-10 0.0
6.531468666137703e-10 0.0
6.081243433192611e-10 0.0
5.661085889254702e-10 0.0
5.269596212536274e-10 0.0
4.903767365182507e-10 0.0
4.561225671039305e-10 0.0
4.2432792654205655e-10 0.0
3.66026352847236e-10 0.0
3.371952608347168e-10 0.0
3.0830714625572913e-10 0.0
2.7960102395750155e-10 0.0
2.5135306598264416e-10 0.0
2.2376105289337698e-10 0.0
1.970801335020817e-10 0.0
1.7158497589772508e-10 0.0
1.4749319558377423e-10 0.0
1.2501470904706054e-10 0.0
1.0437985810108335e-10 0.0
8.56355043527628e-11 0.0
6.901278273753009e-11 0.0
5.444895961102838e-11 0.0
4.194991804434156e-11 0.0
3.158634435511349e-11 0.0
2.3177196052905698e-11 0.0
1.6434990712920707e-11 0.0
1.1346000763462447e-11 0.0
7.51527663986768e-12 0.0
4.772818679647247e-12 0.0
2.89051042367624e-12 0.0
1.691127738969226e-12 0.0
9.128475606512759e-13 0.0
4.731846143725959e-13 0.0
2.2450721853653952e-13 0.0
9.975284123681403e-14 0.0
4.1102830083964725e-14 0.0
1.514397370131992e-14 0.0
5.123331236664615e-15 0.0
1.5474662143805394e-15 0.0
4.165241211305071e-16 0.0
1.1143033193019875e-16 0.0
4.081421737753794e-17 0.0
2.2073045562783903e-17 0.0
1.62417098891416e-17 0.0
1.470485674183921e-17 0.0
1.1519684014740104e-17 0.0
6.498033604233151e-18 0.0
1.2597670937573904e-17 0.0
3.1770562719247994e-17 0.0
5.805386359155176e-17 0.0
6.64573770139565e-17 0.0
4.778165929555285e-17 0.0
2.4891832449874372e-17 0.0
2.4056951074869804e-17 0.0
3.736237687324047e-17 0.0
5.761564368999846e-17 0.0
7.08597620239879e-17 0.0
7.525750366928494e-17 0.0
2.9180318824645894e-17 0.0
7.356415203774289e-17 0.0
2.7432888423890227e-17 0.0
-6.792563551650458e-18 0.0
4.34868986638623e-18 0.0
5.497211394346823e-19 0.0
2.813561222515344e-17 0.0
-2.4911876653332417e-17 0.0
2.143663137577582e-17 0.0
1.218202179676443e-16 0.0
6.90003434639469e-17 0.0
9.690087335395658e-17 0.0
1.0886528374615974e-16 0.0
-5.738371360964818e-17 0.0
1.8593168170905417e-16 0.0
-1.191552541476668e-16 0.0
9.415100467452738e-17 0.0
7.522326728225142e-17 0.0
-1.2648806162248076e-16 0.0
2.472218362253882e-16 0.0
-9.177952112038635e-17 0.0
6.747652746196965e-17 0.0
5.633634812552006e-17 0.0
-1.324900109047504e-16 0.0
3.082297050366996e-16 0.0
4.5346084682560636e-17 0.0
-2.183027340112803e-16 0.0
8.827937695191266e-17 0.0
-9.116608625583062e-17 0.0
0.0 0.009234165287258901
0.0 0.022109785930450574
0.0 0.040062852071518835
0.0 0.06509563926321725
-1.2398583660652885e-16 0.1
-1.8973556984967446e-16 0.1
2.357115102880496e-15 0.1
-2.779027412667723e-15 0.1
0.0 0.09234095951662942
0.0 0.08526779443702781
0.0 0.0787356878349828
0.0 0.07270325358169273
0.0 0.0671322687899485
0.0 0.06198743331092067
0.0 0.057236152337951776
0.0 0.052848316929522965
0.0 0.04879612844994424
0.0 0.04505391065784126
0.0 0.04159795282712523
0.0 0.038406357242571416
0.0 0.035458901718223766
0.0 0.032736910873327606
0.0 0.030223137736030886
0.0 0.027901654838205267
0.0 0.025757753001959337
0.0 0.02377784835211306
0.0 0.021949395807804164
0.0 0.02026081025589444
0.0 0.018701392223653367
0.0 0.017261261595035392
0.0 0.015931293336681022
0.0 0.014703060372940368
0.0 0.01356878078290469
0.0 0.012521267482861144
0.0 0.011553883413523544
0.0 0.010660499143843264
0.0 0.009835453922831553
0.0 0.009073520329637961
0.0 0.008369870608788545
0.0 0.007720046303382454
0.0 0.007119930012372454
0.0 0.006565719473267985
0.0 0.0060539031390102966
0.0 0.005581237987570014
0.0 0.005144729306265207
0.0 0.004741610103740482
0.0 0.0043693452211586966
0.0 0.004025921120834056
0.0 0.0037102880223235245
0.0 0.0034214915436020193
0.0 0.003156781656892084
0.0 0.0029137261759412877
0.0 0.0026917542451294694
0.0 0.002489460071860463
0.0 0.002304909598294072
0.0 0.0021378187013662607
0.0 0.001986075438599872
0.0 0.0018482364567381769
0.0 0.001724098900806779
0.0 0.0016124726637141802
0.0 0.0015122056523693978
0.0 0.0014227446151049686
0.0 0.0013431354684170023
0.0 0.0012731304454083486
0.0 0.001211937587356859
0.0 0.0011589910427919254
0.0 0.0011135829169240923
0.0 0.00107518006197069
0.0 0.001043084504232271
0.0 0.0010169523888994363
0.0 0.000996250685138669
0.0 0.0009796422123865948
0.0 0.0009675808715209135
0.0 0.0009578285328553195
0.0 0.0009509794496944362
0.0 0.0009462541196989602
0.0 0.0009430118178731762
0.0 0.0009410110103168953
0.0 0.0009395104232745418
0.0 0.0009385065706262199
0.0 0.0009375121617003423
0.0 0.0009364940539689668
0.0 0.0009352543757678497
0.0 0.0009339495100353485
0.0 0.0009324600194299631
0.0 0.0009308015615731065
0.0 0.0009289753317496025
0.0 0.0009268441000809198
0.0 0.0009246548531847916
0.0 0.0009224372827988934
0.0 0.0009202886238232809
4.545446251934665e-15 0.004927245132646953
3.6297768055993403e-07 0.002774197482599983
2.9332726876677822e-05 0.0015506888421729422
5.0185578892101743e-05 0.0009789260737886215
3.847072586055664e-06 0.0014054018623529266
4.745284499685023e-13 0.002259784943227077
7.272096297503844e-05 0.0007129791665223814
2.0424661477192628e-08 0.001286779667633089
1.4894142642887868e-05 0.0007841488406521927
7.626027580802544e-06 0.0007690120586989197
3.1230793971024862e-06 0.0007100831828049492
3.663209317404364e-07 0.0006768272513147444
2.0937962394577398e-16 0.01497373646140776
9.177419227659642e-09 0.0006657308501665518
9.077747732161371e-06 0.00047613214380851126
-1.330602084159145e-06 0.0004418171050888584
9.970143317571991e-13 0.001170418081874514
6.705666637502144e-05 0.0007494945107088159
-2.726498304167761e-08 0.00038880979526150676
4.5108547039311924e-06 0.00042016485707654607
4.837177192812996e-06 0.0003997645109773228
3.698782375794084e-06 0.00037731348587706606
2.0294886244294085e-06 0.00037811172385794406
1.1009913717900558e-10 0.0006414990209288394
6.883910185526099e-07 0.00035251714862855754
1.1751014478830247e-07 0.00039120137643754014
-3.408815167962297e-16 0.04847397115433153
2.1062472666665718e-05 0.0003909424016920273
-2.379040138856102e-05 0.0002726112584856099
1.8599318088486106e-08 0.00033400886735011063