# vtk DataFile Version 3.0
Some data
ASCII
DATASET UNSTRUCTURED_GRID
POINTS 7930 float
0.0 0.0 0.0
0.0 10.0 0.0
10.0 10.0 0.0
10.0 0.0 0.0
0.5 0.0 0.0
0.0009999999999981016 0.0 0.0
0.001999999999996203 0.0 0.0
0.002999999999994305 0.0 0.0
0.003999999999992409 0.0 0.0
0.004999999999990531 0.0 0.0
0.005999999999988653 0.0 0.0
0.006999999999986775 0.0 0.0
0.007999999999984898 0.0 0.0
0.008999999999983018 0.0 0.0
0.009999999999981142 0.0 0.0
0.01099999999997926 0.0 0.0
0.01199999999997736 0.0 0.0
0.0129999999999754 0.0 0.0
0.01399999999997343 0.0 0.0
0.01499999999997147 0.0 0.0
0.01599999999996944 0.0 0.0
0.0169999999999673 0.0 0.0
0.01799999999996516 0.0 0.0
0.01899999999996302 0.0 0.0
0.01999999999996084 0.0 0.0
0.02099999999995862 0.0 0.0
0.02199999999995639 0.0 0.0
0.02299999999995417 0.0 0.0
0.02399999999995195 0.0 0.0
0.02499999999994972 0.0 0.0
0.0259999999999475 0.0 0.0
0.02699999999994527 0.0 0.0
0.02799999999994315 0.0 0.0
0.0289999999999411 0.0 0.0
0.02999999999993905 0.0 0.0
0.030999999999937 0.0 0.0
0.03199999999993521 0.0 0.0
0.0329999999999335 0.0 0.0
0.0339999999999318 0.0 0.0
0.03499999999993009 0.0 0.0
0.03599999999992853 0.0 0.0
0.036999999999927 0.0 0.0
0.03799999999992547 0.0 0.0
0.03899999999992394 0.0 0.0
0.03999999999992241 0.0 0.0
0.04099999999992088 0.0 0.0
0.04199999999991934 0.0 0.0
0.04299999999991782 0.0 0.0
0.04399999999991629 0.0 0.0
0.04499999999991475 0.0 0.0
0.04599999999991322 0.0 0.0
0.0469999999999117 0.0 0.0
0.04799999999991016 0.0 0.0
0.04899999999990863 0.0 0.0
0.0499999999999071 0.0 0.0
0.05099999999990557 0.0 0.0
0.05199999999990404 0.0 0.0
0.05299999999990251 0.0 0.0
0.05399999999990097 0.0 0.0
0.05499999999989943 0.0 0.0
0.05599999999989791 0.0 0.0
0.05699999999989638 0.0 0.0
0.05799999999989484 0.0 0.0
0.05899999999989317 0.0 0.0
0.05999999999989129 0.0 0.0
0.06099999999988941 0.0 0.0
0.06199999999988753 0.0 0.0
0.06299999999988531 0.0 0.0
0.06399999999988273 0.0 0.0
0.06499999999988015 0.0 0.0
0.06599999999987759 0.0 0.0
0.0669999999998748 0.0 0.0
0.06799999999987189 0.0 0.0
0.06899999999986897 0.0 0.0
0.06999999999986604 0.0 0.0
0.07099999999986313 0.0 0.0
0.0719999999998602 0.0 0.0
0.07299999999985729 0.0 0.0
0.07399999999985438 0.0 0.0
0.07499999999985145 0.0 0.0
0.07599999999984854 0.0 0.0
0.07699999999984562 0.0 0.0
0.0779999999998427 0.0 0.0
0.07899999999983978 0.0 0.0
0.07999999999983685 0.0 0.0
0.08099999999983394 0.0 0.0
0.08199999999983103 0.0 0.0
0.0829999999998281 0.0 0.0
0.08399999999982519 0.0 0.0
0.08499999999982226 0.0 0.0
0.08599999999981935 0.0 0.0
0.08699999999981643 0.0 0.0
0.0879999999998135 0.0 0.0
0.08899999999981059 0.0 0.0
0.08999999999980766 0.0 0.0
0.09099999999980475 0.0 0.0
0.09199999999980184 0.0 0.0
0.09299999999979891 0.0 0.0
0.093999999999796 0.0 0.0
0.09499999999979307 0.0 0.0
0.09599999999979016 0.0 0.0
0.09699999999978724 0.0 0.0
0.09799999999978432 0.0 0.0
0.0989999999997814 0.0 0.0
0.09999999999977847 0.0 0.0
0.1009999999997756 0.0 0.0
0.1019999999997726 0.0 0.0
0.1029999999997697 0.0 0.0
0.1039999999997668 0.0 0.0
0.1049999999997639 0.0 0.0
0.105999999999761 0.0 0.0
0.106999999999758 0.0 0.0
0.1079999999997551 0.0 0.0
0.1089999999997522 0.0 0.0
0.1099999999997493 0.0 0.0
0.1109999999997464 0.0 0.0
0.1119999999997434 0.0 0.0
0.1129999999997405 0.0 0.0
0.1139999999997376 0.0 0.0
0.1149999999997347 0.0 0.0
0.1159999999997318 0.0 0.0
0.1169999999997288 0.0 0.0
0.1179999999997259 0.0 0.0
0.118999999999723 0.0 0.0
0.1199999999997201 0.0 0.0
0.1209999999997172 0.0 0.0
0.1219999999997143 0.0 0.0
0.1229999999997113 0.0 0.0
0.1239999999997084 0.0 0.0
0.1249999999997055 0.0 0.0
0.1259999999997026 0.0 0.0
0.1269999999996997 0.0 0.0
0.1279999999996967 0.0 0.0
0.1289999999996938 0.0 0.0
0.1299999999996909 0.0 0.0
0.130999999999688 0.0 0.0
0.1319999999996851 0.0 0.0
0.1329999999996822 0.0 0.0
0.1339999999996792 0.0 0.0
0.1349999999996764 0.0 0.0
0.1359999999996734 0.0 0.0
0.1369999999996705 0.0 0.0
0.1379999999996676 0.0 0.0
0.1389999999996647 0.0 0.0
0.1399999999996618 0.0 0.0
0.1409999999996588 0.0 0.0
0.1419999999996559 0.0 0.0
0.142999999999653 0.0 0.0
0.1439999999996501 0.0 0.0
0.1449999999996472 0.0 0.0
0.1459999999996442 0.0 0.0
0.1469999999996414 0.0 0.0
0.1479999999996384 0.0 0.0
0.1489999999996355 0.0 0.0
0.1499999999996326 0.0 0.0
0.1509999999996297 0.0 0.0
0.1519999999996268 0.0 0.0
0.1529999999996239 0.0 0.0
0.1539999999996209 0.0 0.0
0.154999999999618 0.0 0.0
0.1559999999996151 0.0 0.0
0.1569999999996122 0.0 0.0
0.1579999999996093 0.0 0.0
0.1589999999996064 0.0 0.0
0.1599999999996035 0.0 0.0
0.1609999999996005 0.0 0.0
0.1619999999995976 0.0 0.0
0.1629999999995947 0.0 0.0
0.1639999999995918 0.0 0.0
0.1649999999995889 0.0 0.0
0.165999999999586 0.0 0.0
0.1669999999995831 0.0 0.0
0.1679999999995801 0.0 0.0
0.1689999999995772 0.0 0.0
0.1699999999995743 0.0 0.0
0.1709999999995714 0.0 0.0
0.1719999999995685 0.0 0.0
0.1729999999995655 0.0 0.0
0.1739999999995626 0.0 0.0
0.1749999999995597 0.0 0.0
0.1759999999995568 0.0 0.0
0.1769999999995539 0.0 0.0
0.177999999999551 0.0 0.0
0.178999999999548 0.0 0.0
0.1799999999995451 0.0 0.0
0.1809999999995422 0.0 0.0
0.1819999999995393 0.0 0.0
0.1829999999995364 0.0 0.0
0.1839999999995335 0.0 0.0
0.1849999999995305 0.0 0.0
0.1859999999995277 0.0 0.0
0.1869999999995247 0.0 0.0
0.1879999999995218 0.0 0.0
0.1889999999995189 0.0 0.0
0.189999999999516 0.0 0.0
0.1909999999995131 0.0 0.0
0.1919999999995101 0.0 0.0
0.1929999999995072 0.0 0.0
0.1939999999995043 0.0 0.0
0.1949999999995014 0.0 0.0
0.1959999999994985 0.0 0.0
0.1969999999994956 0.0 0.0
0.1979999999994927 0.0 0.0
0.1989999999994897 0.0 0.0
0.1999999999994868 0.0 0.0
0.2009999999994839 0.0 0.0
0.201999999999481 0.0 0.0
0.2029999999994781 0.0 0.0
0.2039999999994752 0.0 0.0
0.2049999999994722 0.0 0.0
0.2059999999994693 0.0 0.0
0.2069999999994664 0.0 0.0
0.2079999999994635 0.0 0.0
0.2089999999994606 0.0 0.0
0.2099999999994577 0.0 0.0
0.2109999999994548 0.0 0.0
0.2119999999994518 0.0 0.0
0.2129999999994489 0.0 0.0
0.213999999999446 0.0 0.0
0.2149999999994431 0.0 0.0
0.2159999999994402 0.0 0.0
0.2169999999994373 0.0 0.0
0.2179999999994343 0.0 0.0
0.2189999999994314 0.0 0.0
0.2199999999994285 0.0 0.0
0.2209999999994256 0.0 0.0
0.2219999999994227 0.0 0.0
0.2229999999994198 0.0 0.0
0.2239999999994168 0.0 0.0
0.2249999999994139 0.0 0.0
0.225999999999411 0.0 0.0
0.2269999999994081 0.0 0.0
0.2279999999994052 0.0 0.0
0.2289999999994023 0.0 0.0
0.2299999999993994 0.0 0.0
0.2309999999993964 0.0 0.0
0.2319999999993935 0.0 0.0
0.2329999999993906 0.0 0.0
0.2339999999993877 0.0 0.0
0.2349999999993848 0.0 0.0
0.2359999999993818 0.0 0.0
0.236999999999379 0.0 0.0
0.237999999999376 0.0 0.0
0.2389999999993731 0.0 0.0
0.2399999999993702 0.0 0.0
0.2409999999993673 0.0 0.0
0.2419999999993644 0.0 0.0
0.2429999999993615 0.0 0.0
0.2439999999993585 0.0 0.0
0.2449999999993556 0.0 0.0
0.2459999999993527 0.0 0.0
0.246999999999351 0.0 0.0
0.2479999999993495 0.0 0.0
0.248999999999348 0.0 0.0
0.2499999999993464 0.0 0.0
0.2509999999993477 0.0 0.0
0.2519999999993489 0.0 0.0
0.2529999999993502 0.0 0.0
0.2539999999993516 0.0 0.0
0.2549999999993542 0.0 0.0
0.2559999999993569 0.0 0.0
0.2569999999993595 0.0 0.0
0.2579999999993621 0.0 0.0
0.2589999999993647 0.0 0.0
0.2599999999993673 0.0 0.0
0.26099999999937 0.0 0.0
0.2619999999993726 0.0 0.0
0.2629999999993753 0.0 0.0
0.2639999999993779 0.0 0.0
0.2649999999993806 0.0 0.0
0.2659999999993832 0.0 0.0
0.2669999999993858 0.0 0.0
0.2679999999993884 0.0 0.0
0.2689999999993911 0.0 0.0
0.2699999999993937 0.0 0.0
0.2709999999993963 0.0 0.0
0.271999999999399 0.0 0.0
0.2729999999994017 0.0 0.0
0.2739999999994043 0.0 0.0
0.2749999999994069 0.0 0.0
0.2759999999994096 0.0 0.0
0.2769999999994122 0.0 0.0
0.2779999999994148 0.0 0.0
0.2789999999994174 0.0 0.0
0.2799999999994201 0.0 0.0
0.2809999999994228 0.0 0.0
0.2819999999994254 0.0 0.0
0.282999999999428 0.0 0.0
0.2839999999994306 0.0 0.0
0.2849999999994333 0.0 0.0
0.2859999999994359 0.0 0.0
0.2869999999994385 0.0 0.0
0.2879999999994411 0.0 0.0
0.2889999999994439 0.0 0.0
0.2899999999994465 0.0 0.0
0.2909999999994491 0.0 0.0
0.2919999999994517 0.0 0.0
0.2929999999994544 0.0 0.0
0.293999999999457 0.0 0.0
0.2949999999994596 0.0 0.0
0.2959999999994622 0.0 0.0
0.2969999999994649 0.0 0.0
0.2979999999994676 0.0 0.0
0.2989999999994702 0.0 0.0
0.2999999999994728 0.0 0.0
0.3009999999994754 0.0 0.0
0.3019999999994781 0.0 0.0
0.3029999999994807 0.0 0.0
0.3039999999994834 0.0 0.0
0.304999999999486 0.0 0.0
0.3059999999994886 0.0 0.0
0.3069999999994913 0.0 0.0
0.3079999999994939 0.0 0.0
0.3089999999994965 0.0 0.0
0.3099999999994992 0.0 0.0
0.3109999999995018 0.0 0.0
0.3119999999995045 0.0 0.0
0.3129999999995071 0.0 0.0
0.3139999999995097 0.0 0.0
0.3149999999995123 0.0 0.0
0.315999999999515 0.0 0.0
0.3169999999995176 0.0 0.0
0.3179999999995203 0.0 0.0
0.3189999999995229 0.0 0.0
0.3199999999995256 0.0 0.0
0.3209999999995282 0.0 0.0
0.3219999999995308 0.0 0.0
0.3229999999995334 0.0 0.0
0.323999999999536 0.0 0.0
0.3249999999995387 0.0 0.0
0.3259999999995414 0.0 0.0
0.326999999999544 0.0 0.0
0.3279999999995466 0.0 0.0
0.3289999999995493 0.0 0.0
0.3299999999995519 0.0 0.0
0.3309999999995545 0.0 0.0
0.3319999999995571 0.0 0.0
0.3329999999995598 0.0 0.0
0.3339999999995625 0.0 0.0
0.3349999999995651 0.0 0.0
0.3359999999995677 0.0 0.0
0.3369999999995703 0.0 0.0
0.337999999999573 0.0 0.0
0.3389999999995756 0.0 0.0
0.3399999999995783 0.0 0.0
0.3409999999995809 0.0 0.0
0.3419999999995835 0.0 0.0
0.3429999999995862 0.0 0.0
0.3439999999995888 0.0 0.0
0.3449999999995914 0.0 0.0
0.345999999999594 0.0 0.0
0.3469999999995967 0.0 0.0
0.3479999999995994 0.0 0.0
0.348999999999602 0.0 0.0
0.3499999999996046 0.0 0.0
0.3509999999996072 0.0 0.0
0.3519999999996099 0.0 0.0
0.3529999999996125 0.0 0.0
0.3539999999996151 0.0 0.0
0.3549999999996178 0.0 0.0
0.3559999999996205 0.0 0.0
0.3569999999996231 0.0 0.0
0.3579999999996257 0.0 0.0
0.3589999999996283 0.0 0.0
0.359999999999631 0.0 0.0
0.3609999999996336 0.0 0.0
0.3619999999996362 0.0 0.0
[...]
POINT_DATA 7930
SCALARS Disp float 2
LOOKUP_TABLE default
0.0 0.0014237448993508805
0.0 0.1
0.0 0.1
0.0 0.0
4.013475857520129e-06 0.0
-6.9018377679519e-06 0.001423619601301102
-1.3731727106386974e-05 0.0014229350318840381
-2.0543268849296768e-05 0.0014222073170498352
-2.7589776018965768e-05 0.0014214369709215908
-3.448929266914953e-05 0.0014197215802606033
-4.105248289426503e-05 0.0014171226558103763
-4.7662771983874116e-05 0.0014156101660078144
-5.480353910622774e-05 0.0014145325367791615
-6.197410550407825e-05 0.0014113265970077762
-6.853438423552651e-05 0.0014067644129844448
-7.481341376914451e-05 0.0014037309579298563
-8.199955501041047e-05 0.0014019026882806417
-8.950398468679713e-05 0.0013979304369460762
-9.609004786306817e-05 0.0013917826562004128
-0.00010233638174442342 0.001386997349332324
-0.00010940279576822385 0.0013839361471203154
-0.00011703623520371067 0.0013786170082906095
-0.0001236185558915424 0.0013707521892766855
-0.00012944656622852736 0.00136448484343616
-0.0001364922610678147 0.0013608335881846712
-0.00014425011943645127 0.0013542495579842906
-0.00015094786852207413 0.0013445574391772817
-0.00015679462982633332 0.0013366210270223259
-0.00016365607355108518 0.0013315420505884289
-0.0001715615140348157 0.0013241464481975524
-0.00017831162304290344 0.0013124706784202167
-0.00018419953024098381 0.0013027300157265138
-0.0001908959874272618 0.0012961777798333831
-0.00019858992141348516 0.001287539835591563
-0.00020562420280759663 0.001274643762192887
-0.00021162831719098488 0.0012628075731147509
-0.00021836101100769032 0.001254601332564165
-0.00022629271570813404 0.0012442774105944523
-0.00023314375044873148 0.001228973649397203
-0.00023896544731539168 0.0012148626561769957
-0.0002453426273082491 0.0012048472513016824
-0.000252958010064964 0.0011930986712401985
-0.00026005658827319756 0.001176088401853899
-0.0002657732672487054 0.001159825265227902
-0.00027224435769604676 0.0011481514667692698
-0.0002802930483412375 0.0011344988019922706
-0.00028734353991083795 0.0011147815899127868
-0.00029322535252232116 0.0010956051274349085
-0.00029944892653317024 0.001081100206215291
-0.000307253683242573 0.0010652722513547813
-0.000314802916990435 0.001042972379897015
-0.00032038399515571156 0.001020427999432972
-0.0003265908760882596 0.0010028945371957751
-0.00033454677000177037 0.0009840050934909169
-0.00034201269941553405 0.0009584570296673223
-0.0003478414892859538 0.0009320201502623836
-0.00035384785531121564 0.0009103401785910762
-0.0003618647715612708 0.0008879286660304569
-0.00036988881526175163 0.000857134742005316
-0.00037555833833860026 0.0008248871910878068
-0.00038116349604183273 0.000797495340285316
-0.0003887822033136201 0.0007691649321388308
-0.00039684938068551177 0.0007325457612276249
-0.0004028604137490245 0.000692613917022731
-0.0004084603244696393 0.0006564601147482163
-0.00041620259890637925 0.0006179569991337444
-0.00042320878885852533 0.0005697428585964459
-0.0004293527919159285 0.0005153628379555667
-0.00043445779865010847 0.0004607803558265292
-0.00044261955176453906 0.0003970602200128724
-0.00044669608901930127 0.0003140397564127647
-0.0004434342895122008 0.00020029238600950368
-0.0004188610939132425 0.0
-0.0003778798216852173 0.0
-0.0003528658682366176 0.0
-0.0003327084881472479 0.0
-0.0003170558963144903 0.0
-0.0003035209477493828 0.0
-0.00029170811553390027 0.0
-0.00028118307489424587 0.0
-0.0002718018338325303 0.0
-0.00026325343553227644 0.0
-0.000255441435127593 0.0
-0.00024813003873376966 0.0
-0.0002413690099593891 0.0
-0.00023504557193747286 0.0
-0.00022907953252468744 0.0
-0.00022345850290880613 0.0
-0.0002181842134509249 0.0
-0.00021315335398207794 0.0
-0.0002083487463996399 0.0
-0.00020378948673606954 0.0
-0.000199435761198591 0.0
-0.00019528226980121587 0.0
-0.000191289873863296 0.0
-0.00018745685965409098 0.0
-0.00018377306756422646 0.0
-0.00018022046224910844 0.0
-0.00017679521738017814 0.0
-0.00017350015882112345 0.0
-0.00017031353987703707 0.0
-0.0001672145311246323 0.0
-0.00016421514475164863 0.0
-0.00016129556100837546 0.0
-0.00015847356390901439 0.0
-0.00015573127312829482 0.0
-0.0001530763857275275 0.0
-0.00015050049397754816 0.0
-0.00014800063480394505 0.0
-0.00014557143906339986 0.0
-0.0001431937086747144 0.0
-0.00014089135644086102 0.0
-0.00013867066700270453 0.0
-0.00013647023760723814 0.0
-0.0001343419156340986 0.0
-0.00013226941932981343 0.0
-0.00013023885543920048 0.0
-0.00012825803599009943 0.0
-0.00012632297971552054 0.0
-0.0001244245403364937 0.0
-0.00012256864007128334 0.0
-0.00012075508034123095 0.0
-0.00011898034877949156 0.0
-0.00011725242563571426 0.0
-0.00011553366473413546 0.0
-0.00011386539057890928 0.0
-0.00011222452341474571 0.0
-0.00011062214509846915 0.0
-0.0001090419496125507 0.0
-0.00010749758331008409 0.0
-0.00010598246352424813 0.0
-0.0001044966406763265 0.0
-0.00010303882828879668 0.0
-0.00010160986104596448 0.0
-0.00010020806592994844 0.0
-9.883181752614571e-05 0.0
-9.74798590209544e-05 0.0
-9.615541977901313e-05 0.0
-9.485849668038227e-05 0.0
-9.357227734602193e-05 0.0
-9.231353134544756e-05 0.0
-9.107221399128105e-05 0.0
-8.985092804909764e-05 0.0
-8.864699708913518e-05 0.0
-8.746073306926774e-05 0.0
-8.629287818997332e-05 0.0
-8.514243618656768e-05 0.0
-8.400875637367593e-05 0.0
-8.288953514070493e-05 0.0
-8.178744418909541e-05 0.0
-8.070197756291655e-05 0.0
-7.963183575486075e-05 0.0
-7.857846295480651e-05 0.0
-7.754072546068506e-05 0.0
-7.651774409936448e-05 0.0
-7.551040377339945e-05 0.0
-7.451877385843158e-05 0.0
-7.354143248177891e-05 0.0
-7.257838070556658e-05 0.0
-7.163121909847038e-05 0.0
-7.070035073246229e-05 0.0
-6.977883750228399e-05 0.0
-6.887557896633942e-05 0.0
-6.798428305736196e-05 0.0
-6.710609704475749e-05 0.0
-6.62424454072061e-05 0.0
-6.538522247146294e-05 0.0
-6.454415427268554e-05 0.0
-6.371414333017619e-05 0.0
-6.289477430897832e-05 0.0
-6.208650450393134e-05 0.0
-6.128849732316842e-05 0.0
-6.050017635598292e-05 0.0
-5.9721113956686555e-05 0.0
-5.895165968253379e-05 0.0
-5.81910711569068e-05 0.0
-5.743856594500943e-05 0.0
-5.6695699122008513e-05 0.0
-5.5962190969720225e-05 0.0
-5.52366968186446e-05 0.0
-5.451924844550112e-05 0.0
-5.3810549472248525e-05 0.0
-5.3110591802685285e-05 0.0
-5.241757384809145e-05 0.0
-5.1732560354961487e-05 0.0
-5.105586072316773e-05 0.0
-5.038642047397262e-05 0.0
-4.972430220159748e-05 0.0
-4.9069703379428006e-05 0.0
-4.842309222505012e-05 0.0
-4.778310039947006e-05 0.0
-4.715038998116337e-05 0.0
-4.652478925810192e-05 0.0
-4.59060815725369e-05 0.0
-4.5294573106066886e-05 0.0
-4.469036280851718e-05 0.0
-4.409246639035818e-05 0.0
-4.350136708682962e-05 0.0
-4.291664944049989e-05 0.0
-4.233863693773055e-05 0.0
-4.1767723514122225e-05 0.0
-4.12028372151513e-05 0.0
-4.064393485030018e-05 0.0
-4.009173407877471e-05 0.0
-3.954516016578388e-05 0.0
-3.900462419373532e-05 0.0
-3.847027609180332e-05 0.0
-3.794184725011821e-05 0.0
-3.7418889272817825e-05 0.0
-3.690233197035763e-05 0.0
-3.63896563838672e-05 0.0
-3.588241024444691e-05 0.0
-3.538037071490551e-05 0.0
-3.4883838861041676e-05 0.0
-3.439205276457669e-05 0.0
-3.390514776662581e-05 0.0
-3.342308681291054e-05 0.0
-3.294536226480527e-05 0.0
-3.2472200231130894e-05 0.0
-3.200479836212185e-05 0.0
-3.153967463694613e-05 0.0
-3.10798926987353e-05 0.0
-3.062473921442604e-05 0.0
-3.017341330748431e-05 0.0
-2.972643929147964e-05 0.0
-2.9283877987419856e-05 0.0
-2.884551978487242e-05 0.0
-2.8411274142948505e-05 0.0
-2.7981394790102667e-05 0.0
-2.7555831168000064e-05 0.0
-2.7134446320142657e-05 0.0
-2.6717570040528623e-05 0.0
-2.6304871420910418e-05 0.0
-2.589640132335139e-05 0.0
-2.5492296637564182e-05 0.0
-2.509225867627947e-05 0.0
-2.4696221662932833e-05 0.0
-2.4304470366915298e-05 0.0
-2.391693654358922e-05 0.0
-2.353315284273133e-05 0.0
-2.3153631544130292e-05 0.0
-2.277784715878987e-05 0.0
-2.2406109410393043e-05 0.0
-2.2038126129062847e-05 0.0
-2.167367308248067e-05 0.0
-2.1312715993309728e-05 0.0
-2.0955172790135683e-05 0.0
-2.060095943310462e-05 0.0
-2.0249815550108087e-05 0.0
-1.9901889794130573e-05 0.0
-1.9557308035018448e-05 0.0
-1.92154125459671e-05 0.0
-1.8876326873786864e-05 0.0
-1.8540332058751686e-05 0.0
-1.820703560292083e-05 0.0
-1.7876424198048784e-05 0.0
-1.754846946437773e-05 0.0
-1.7222987457459044e-05 0.0
-1.690006793658151e-05 0.0
-1.657986156499077e-05 0.0
-1.6262020650548926e-05 0.0
-1.59467473918637e-05 0.0
-1.5633995482077915e-05 0.0
-1.5323855509487954e-05 0.0
-1.5016319971222957e-05 0.0
-1.471137775944052e-05 0.0
-1.4408965104672562e-05 0.0
-1.4109095834167286e-05 0.0
-1.3811936313221133e-05 0.0
-1.3517343472903061e-05 0.0
-1.3225532938076041e-05 0.0
-1.2936511404745325e-05 0.0
-1.2650209348288094e-05 0.0
-1.2366189747119853e-05 0.0
-1.20855195062751e-05 0.0
-1.1807029405828176e-05 0.0
-1.153191458179326e-05 0.0
-1.125886423760888e-05 0.0
-1.0988699932209655e-05 0.0
-1.0721239908664354e-05 0.0
-1.045657124853645e-05 0.0
-1.0194594358198625e-05 0.0
-9.935147856784358e-06 0.0
-9.678362821018388e-06 0.0
-9.42411686344352e-06 0.0
-9.172420005667376e-06 0.0
-8.923194533298842e-06 0.0
-8.676356833675792e-06 0.0
-8.431939493349337e-06 0.0
-8.18972101804224e-06 0.0
-7.949800386897769e-06 0.0
-7.712250233432813e-06 0.0
-7.4769111542933e-06 0.0
-7.24386027162992e-06 0.0
-7.0122288271886936e-06 0.0
-6.7831191159362055e-06 0.0
-6.556030666733215e-06 0.0
-6.331055427429406e-06 0.0
-6.108439869114473e-06 0.0
-5.887205059761191e-06 0.0
-5.668100166491081e-06 0.0
-5.451051789644161e-06 0.0
-5.236043902076381e-06 0.0
-5.022937126866245e-06 0.0
-4.811817720357943e-06 0.0
-4.602606575200672e-06 0.0
-4.395464761297126e-06 0.0
-4.190289874948056e-06 0.0
-3.987113621803769e-06 0.0
-3.78599097485899e-06 0.0
-3.5869375692791864e-06 0.0
-3.389972550221312e-06 0.0
-3.1944883269790853e-06 0.0
-3.001320062792982e-06 0.0
-2.8102639208542615e-06 0.0
-2.6213213128414747e-06 0.0
-2.434705947154461e-06 0.0
-2.2494883505858488e-06 0.0
-2.066381005060151e-06 0.0
-1.885338164654865e-06 0.0
-1.706321064755508e-06 0.0
-1.529320400873281e-06 0.0
-1.354460179479241e-06 0.0
-1.1815293528520861e-06 0.0
-1.0104457688933658e-06 0.0
-8.412838842718437e-07 0.0
-6.740610579936327e-07 0.0
-5.08617213625831e-07 0.0
-3.449801621895867e-07 0.0
-1.832553372462854e-07 0.0
-2.336203946988103e-08 0.0
1.347650329770145e-07 0.0
2.9118359342088363e-07 0.0
4.457674039471221e-07 0.0
5.985562305246903e-07 0.0
7.497231906045264e-07 0.0
8.991222948700582e-07 0.0
1.0468626412274832e-06 0.0
1.1928359231673735e-06 0.0
1.3371291740712673e-06 0.0
1.4797518882838598e-06 0.0
1.6207164278958883e-06 0.0
1.759992468033012e-06 0.0
1.8974252355766374e-06 0.0
2.033075351307846e-06 0.0
2.1669487692294974e-06 0.0
2.299040510868262e-06 0.0
2.4292699682514346e-06 0.0
2.5575588662982195e-06 0.0
2.6837851172510866e-06 0.0
2.8081458566652607e-06 0.0
2.9303769657719347e-06 0.0
3.0506407990417002e-06 0.0
3.1690014392631637e-06 0.0
3.2849968857216606e-06 0.0
3.3986159814212064e-06 0.0
3.5102701405007237e-06 0.0
3.6194710453709747e-06 0.0
3.726477630891602e-06 0.0
3.831085361634375e-06 0.0
3.932995588551496e-06 0.0
4.032718263775015e-06 0.0
4.129922271896859e-06 0.0
4.224641922834493e-06 0.0
4.317039144610882e-06 0.0
4.406718191386674e-06 0.0
4.4937196823519565e-06 0.0
4.578271183110858e-06 0.0
4.660184212046598e-06 0.0
4.73953912338158e-06 0.0
4.816356700461121e-06 0.0
4.890548879708737e-06 0.0
4.962196676169959e-06 0.0
5.031275676021991e-06 0.0
5.0980869579496395e-06 0.0
5.1623799806530596e-06 0.0
5.2241772256623965e-06 0.0
5.283553457727906e-06 0.0
5.3405999759017764e-06 0.0
5.395337592457559e-06 0.0
5.447867360061897e-06 0.0
5.49816201945307e-06 0.0
5.546316632463806e-06 0.0
5.592669276068343e-06 0.0
5.6368866558101774e-06 0.0
5.6789536485522525e-06 0.0
5.7193335937109484e-06 0.0
5.758055071806181e-06 0.0
5.794833180936092e-06 0.0
5.829876744878039e-06 0.0
5.863395790772195e-06 0.0
5.89541444063581e-06 0.0
5.9259104258448445e-06 0.0
5.955086515092603e-06 0.0
5.982772653860595e-06 0.0
6.0090086791589595e-06 0.0
6.034113198479717e-06 0.0
6.057985468338227e-06 0.0
6.080672628813272e-06 0.0
6.102341600575095e-06 0.0
6.122763071056089e-06 0.0
6.142093663664228e-06 0.0
6.160432374148766e-06 0.0
6.177682690496707e-06 0.0
6.193909660610208e-06 0.0
6.2092517299372925e-06 0.0
6.223623306530832e-06 0.0
6.237030589775911e-06 0.0
6.249476791526621e-06 0.0
6.261005989896369e-06 0.0
6.2716018009221885e-06 0.0
6.2812700375356034e-06 0.0
6.289986892148411e-06 0.0
6.297790891007455e-06 0.0
6.304647657306598e-06 0.0
6.310584977019282e-06 0.0
6.315599572793117e-06 0.0
6.319620104551631e-06 0.0
6.3226530066833765e-06 0.0
6.324703458550319e-06 0.0
6.325723922157713e-06 0.0
6.3257351383483114e-06 0.0
6.324763831164657e-06 0.0
6.32273918714139e-06 0.0
6.319694720000274e-06 0.0
6.315598151496597e-06 0.0
6.310417726794957e-06 0.0
6.3041727985831216e-06 0.0
6.296945398832537e-06 0.0
6.288553483750883e-06 0.0
6.279087008526756e-06 0.0
6.26851682402239e-06 0.0
6.256909089233314e-06 0.0
6.244250225722166e-06 0.0
6.230518107724004e-06 0.0
6.2157350084727464e-06 0.0
6.199927620240498e-06 0.0
6.183096506468055e-06 0.0
6.165227890066466e-06 0.0
6.146377071657187e-06 0.0
6.126522328446662e-06 0.0
6.105715542794427e-06 0.0
6.083964943681304e-06 0.0
6.0613042436386875e-06 0.0
6.03782643394588e-06 0.0
6.013444239679967e-06 0.0
5.9882244571854644e-06 0.0
5.962200799972045e-06 0.0
5.935433011306829e-06 0.0
5.907939795148151e-06 0.0
5.879797638253918e-06 0.0
5.850951581909253e-06 0.0
5.821495610189626e-06 0.0
5.791468409291353e-06 0.0
5.760873162760687e-06 0.0
5.729774279405325e-06 0.0
5.69821384992542e-06 0.0
5.666211653138996e-06 0.0
5.633804885953823e-06 0.0
5.6010267545825246e-06 0.0
5.567885322366737e-06 0.0
5.534460483750503e-06 0.0
5.5007543660534425e-06 0.0
5.46680070971625e-06 0.0
5.4326256673620874e-06 0.0
5.398244726110744e-06 0.0
5.363700747670025e-06 0.0
5.3290220401250395e-06 0.0
5.294236790123263e-06 0.0
5.2593420041924324e-06 0.0
5.224349218771362e-06 0.0
5.189294170405565e-06 0.0
5.15420259434934e-06 0.0
5.119074585004145e-06 0.0
5.083925960372096e-06 0.0
5.048762193791389e-06 0.0
5.013592234748215e-06 0.0
4.978417105100892e-06 0.0
4.943241260602014e-06 0.0
4.9080754133166e-06 0.0
4.872910191035056e-06 0.0
4.837752439940058e-06 0.0
4.802596909424327e-06 0.0
4.7674429234546376e-06 0.0
4.732287624735766e-06 0.0
4.697122278427872e-06 0.0
4.661936764196137e-06 0.0
4.6267220407318e-06 0.0
4.591480750583237e-06 0.0
4.5561913842670845e-06 0.0
4.520845035599791e-06 0.0
4.485433372708756e-06 0.0
4.4499348043787576e-06 0.0
4.414358267384799e-06 0.0
4.3786805002185515e-06 0.0
4.342884248922319e-06 0.0
4.3069581447925715e-06 0.0
4.270898968672024e-06 0.0
4.234681980029252e-06 0.0
4.198297887225971e-06 0.0
4.161729670564327e-06 0.0
4.1249771574622245e-06 0.0
4.088036436886986e-06 0.0
4.0508668134850765e-06 0.0
3.9744925556629625e-06 0.0
3.931815826151387e-06 0.0
3.885068404776937e-06 0.0
3.8338147202290535e-06 0.0
3.777558419918375e-06 0.0
3.7157655112596787e-06 0.0
3.647822299879167e-06 0.0
3.5730487806779286e-06 0.0
3.490695437908936e-06 0.0
3.399945376255866e-06 0.0
3.299895915152118e-06 0.0
3.189651592235007e-06 0.0
3.068211109002563e-06 0.0
2.934675387921891e-06 0.0
2.7882024196864175e-06 0.0
2.628077467698865e-06 0.0
2.4540816753275397e-06 0.0
2.266334586329931e-06 0.0
2.0659945824749532e-06 0.0
1.8543054748068278e-06 0.0
1.6340329516676184e-06 0.0
1.4093126321924777e-06 0.0
1.1866547996167542e-06 0.0
9.682982847391703e-07 0.0
7.642906949435732e-07 0.0
5.780344400529656e-07 0.0
4.1738270563568967e-07 0.0
2.858294893267892e-07 0.0
1.836348789776347e-07 0.0
1.0997846352208189e-07 0.0
6.059720421615406e-08 0.0
3.032074730901124e-08 0.0
1.3385748164682193e-08 0.0
5.2798015613256945e-09 0.0
1.7762198868602637e-09 0.0
4.901972514782492e-10 0.0
1.052359161078109e-10 0.0
1.7835073889797638e-11 0.0
2.687925758565744e-12 0.0
2.864898657515279e-13 0.0
1.3153330434537687e-14 0.0
7.225925805294455e-16 0.0
2.975979924886561e-17 0.0
1.4101251673476243e-17 0.0
1.1472436672509371e-17 0.0
5.732085012549275e-17 0.0
6.849005722839608e-17 0.0
6.955713491194841e-17 0.0
2.4280552327695056e-17 0.0
-1.112333988035117e-17 0.0
-3.9944154823740684e-17 0.0
-1.381771509973465e-17 0.0
2.935333693553657e-17 0.0
5.941525840643016e-17 0.0
7.220288386699534e-17 0.0
1.0720564738994164e-16 0.0
6.111166186375161e-17 0.0
-3.054817164573931e-17 0.0
-8.932053693335971e-17 0.0
2.5395118941362653e-17 0.0
4.308012498157928e-16 0.0
3.5384598207425794e-16 0.0
-2.9550233112760887e-17 0.0
1.2133838173748708e-17 0.0
-3.171420757685251e-16 0.0
-6.092479759024418e-17 0.0
1.3166193729977586e-16 0.0
4.5651976608489754e-17 0.0
-1.0607996240356783e-16 0.0
2.3444533099208503e-16 0.0
-4.8107861116344884e-17 0.0
4.8315722239490465e-16 0.0
-6.775678924722171e-16 0.0
-7.64511365045938e-17 0.0
1.1751902095991644e-15 0.0
-3.7620760594318753e-16 0.0
-4.472773548829398e-16 0.0
3.4220333088267753e-16 0.0
-5.1732396738152795e-16 0.0
0.0 0.009234165287260152
0.0 0.022109785930456004
0.0 0.04006285207148854
0.0 0.06509563926316699
-6.637745782173587e-16 0.1
-1.056924386142247e-15 0.1
1.237737316339956e-14 0.1
-1.3780769601480395e-14 0.1
0.0 0.09234095951661968
0.0 0.08526779443702948
0.0 0.07873568783497936
0.0 0.07270325358166915
0.0 0.06713226878994864
0.0 0.061987433310927646
0.0 0.05723615233795807
0.0 0.05284831692952349
0.0 0.04879612844994924
0.0 0.0450539106578419
0.0 0.04159795282711819
0.0 0.03840635724257347
0.0 0.0354589017182243
0.0 0.03273691087332938
0.0 0.030223137736033523
0.0 0.027901654838206245
0.0 0.025757753001962366
0.0 0.02377784835211686
0.0 0.021949395807803748
0.0 0.020260810255895417
0.0 0.018701392223655657
0.0 0.017261261595035635
0.0 0.015931293336679992
0.0 0.014703060372952208
0.0 0.013568780782881183
0.0 0.012521267482955307
0.0 0.011553883414027893
0.0 0.010660499138109049
0.0 0.009835453939815096
0.0 0.009073520309967224
0.0 0.00836987003355751
0.0 0.007720045788949015
0.0 0.007119954618335507
0.0 0.006565560594629848
0.0 0.006054673357541829
0.0 0.005587229511851121
0.0 0.005157993609958595
0.0 0.00476468877133806
0.0 0.0044042870935711645
0.0 0.004075033805640537
0.0 0.003774521606506552
0.0 0.003501725610693665
0.0 0.00325336343081573
0.0 0.0030282081560743103
0.0 0.002824555199367081
0.0 0.0026403686675946945
0.0 0.002474525489559543
0.0 0.002325996303670218
0.0 0.0021929560559977987
0.0 0.002075122795566491
0.0 0.0019716804501564
0.0 0.0018805350964402317
0.0 0.001801346536978625
0.0 0.0017335987956345184
0.0 0.0016756824762221433
0.0 0.0016271565171491296
0.0 0.0015868706305525724
0.0 0.0015541795908547286
0.0 0.0015279253593422934
0.0 0.0015075433328096825
0.0 0.0014919111399384437
0.0 0.0014803585578144884
0.0 0.0014723858603673157
0.0 0.0014662255346265022
0.0 0.0014626435109974271
0.0 0.0014592575777188433
0.0 0.0014571334095536234
0.0 0.0014556410917419378
0.0 0.0014543803457243347
0.0 0.0014532168410260303
0.0 0.0014518063138882864
0.0 0.0014503646699032691
0.0 0.0014487044838037279
0.0 0.0014468898454482783
0.0 0.0014448208373626316
0.0 0.0014426777905715254
0.0 0.0014404027008323142
0.0 0.0014380639966714143
0.0 0.0014356992290795916
0.0 0.0014332304853605226
0.0 0.0014307819866812273
0.0 0.0014283563591783515
0.0 0.0014260491206128944
4.97783012232431e-09 0.004927250087482758
2.8137490648590582e-05 0.002789157412988732
7.194035677702118e-05 0.0016281585848862508
0.00010556672719600392 0.001166861373612751
2.3466543844294097e-05 0.001401473513055436
2.59687808388802e-06 0.0022607184896827103
0.00011337712697263946 0.0011268998301573099
8.831344614658435e-06 0.0012870742982121776
1.7342324999641576e-05 0.0008191204543123754
3.890704691085918e-06 0.0007693089337405372
6.085589084185128e-06 0.0007038378450687077
8.060248909130546e-06 0.0006746452047748703
-3.6964768305464117e-16 0.014973736461407563
6.2572933008230755e-06 0.0006657196987035125
2.3112630126265014e-05 0.0005988565318094046
-2.6762722742032372e-05 0.00047330381122034356
1.354173239561618e-06 0.0011706385342425522
2.9999224828229942e-05 0.0013087040627811277