# vtk DataFile Version 3.0
Some data
ASCII
DATASET UNSTRUCTURED_GRID
POINTS 7930 float
0.0 0.0 0.0
0.0 10.0 0.0
10.0 10.0 0.0
10.0 0.0 0.0
0.5 0.0 0.0
0.0009999999999981016 0.0 0.0
0.001999999999996203 0.0 0.0
0.002999999999994305 0.0 0.0
0.003999999999992409 0.0 0.0
0.004999999999990531 0.0 0.0
0.005999999999988653 0.0 0.0
0.006999999999986775 0.0 0.0
0.007999999999984898 0.0 0.0
0.008999999999983018 0.0 0.0
0.009999999999981142 0.0 0.0
0.01099999999997926 0.0 0.0
0.01199999999997736 0.0 0.0
0.0129999999999754 0.0 0.0
0.01399999999997343 0.0 0.0
0.01499999999997147 0.0 0.0
0.01599999999996944 0.0 0.0
0.0169999999999673 0.0 0.0
0.01799999999996516 0.0 0.0
0.01899999999996302 0.0 0.0
0.01999999999996084 0.0 0.0
0.02099999999995862 0.0 0.0
0.02199999999995639 0.0 0.0
0.02299999999995417 0.0 0.0
0.02399999999995195 0.0 0.0
0.02499999999994972 0.0 0.0
0.0259999999999475 0.0 0.0
0.02699999999994527 0.0 0.0
0.02799999999994315 0.0 0.0
0.0289999999999411 0.0 0.0
0.02999999999993905 0.0 0.0
0.030999999999937 0.0 0.0
0.03199999999993521 0.0 0.0
0.0329999999999335 0.0 0.0
0.0339999999999318 0.0 0.0
0.03499999999993009 0.0 0.0
0.03599999999992853 0.0 0.0
0.036999999999927 0.0 0.0
0.03799999999992547 0.0 0.0
0.03899999999992394 0.0 0.0
0.03999999999992241 0.0 0.0
0.04099999999992088 0.0 0.0
0.04199999999991934 0.0 0.0
0.04299999999991782 0.0 0.0
0.04399999999991629 0.0 0.0
0.04499999999991475 0.0 0.0
0.04599999999991322 0.0 0.0
0.0469999999999117 0.0 0.0
0.04799999999991016 0.0 0.0
0.04899999999990863 0.0 0.0
0.0499999999999071 0.0 0.0
0.05099999999990557 0.0 0.0
0.05199999999990404 0.0 0.0
0.05299999999990251 0.0 0.0
0.05399999999990097 0.0 0.0
0.05499999999989943 0.0 0.0
0.05599999999989791 0.0 0.0
0.05699999999989638 0.0 0.0
0.05799999999989484 0.0 0.0
0.05899999999989317 0.0 0.0
0.05999999999989129 0.0 0.0
0.06099999999988941 0.0 0.0
0.06199999999988753 0.0 0.0
0.06299999999988531 0.0 0.0
0.06399999999988273 0.0 0.0
0.06499999999988015 0.0 0.0
0.06599999999987759 0.0 0.0
0.0669999999998748 0.0 0.0
0.06799999999987189 0.0 0.0
0.06899999999986897 0.0 0.0
0.06999999999986604 0.0 0.0
0.07099999999986313 0.0 0.0
0.0719999999998602 0.0 0.0
0.07299999999985729 0.0 0.0
0.07399999999985438 0.0 0.0
0.07499999999985145 0.0 0.0
0.07599999999984854 0.0 0.0
0.07699999999984562 0.0 0.0
0.0779999999998427 0.0 0.0
0.07899999999983978 0.0 0.0
0.07999999999983685 0.0 0.0
0.08099999999983394 0.0 0.0
0.08199999999983103 0.0 0.0
0.0829999999998281 0.0 0.0
0.08399999999982519 0.0 0.0
0.08499999999982226 0.0 0.0
0.08599999999981935 0.0 0.0
0.08699999999981643 0.0 0.0
0.0879999999998135 0.0 0.0
0.08899999999981059 0.0 0.0
0.08999999999980766 0.0 0.0
0.09099999999980475 0.0 0.0
0.09199999999980184 0.0 0.0
0.09299999999979891 0.0 0.0
0.093999999999796 0.0 0.0
0.09499999999979307 0.0 0.0
0.09599999999979016 0.0 0.0
0.09699999999978724 0.0 0.0
0.09799999999978432 0.0 0.0
0.0989999999997814 0.0 0.0
0.09999999999977847 0.0 0.0
0.1009999999997756 0.0 0.0
0.1019999999997726 0.0 0.0
0.1029999999997697 0.0 0.0
0.1039999999997668 0.0 0.0
0.1049999999997639 0.0 0.0
0.105999999999761 0.0 0.0
0.106999999999758 0.0 0.0
0.1079999999997551 0.0 0.0
0.1089999999997522 0.0 0.0
0.1099999999997493 0.0 0.0
0.1109999999997464 0.0 0.0
0.1119999999997434 0.0 0.0
0.1129999999997405 0.0 0.0
0.1139999999997376 0.0 0.0
0.1149999999997347 0.0 0.0
0.1159999999997318 0.0 0.0
0.1169999999997288 0.0 0.0
0.1179999999997259 0.0 0.0
0.118999999999723 0.0 0.0
0.1199999999997201 0.0 0.0
0.1209999999997172 0.0 0.0
0.1219999999997143 0.0 0.0
0.1229999999997113 0.0 0.0
0.1239999999997084 0.0 0.0
0.1249999999997055 0.0 0.0
0.1259999999997026 0.0 0.0
0.1269999999996997 0.0 0.0
0.1279999999996967 0.0 0.0
0.1289999999996938 0.0 0.0
0.1299999999996909 0.0 0.0
0.130999999999688 0.0 0.0
0.1319999999996851 0.0 0.0
0.1329999999996822 0.0 0.0
0.1339999999996792 0.0 0.0
0.1349999999996764 0.0 0.0
0.1359999999996734 0.0 0.0
0.1369999999996705 0.0 0.0
0.1379999999996676 0.0 0.0
0.1389999999996647 0.0 0.0
0.1399999999996618 0.0 0.0
0.1409999999996588 0.0 0.0
0.1419999999996559 0.0 0.0
0.142999999999653 0.0 0.0
0.1439999999996501 0.0 0.0
0.1449999999996472 0.0 0.0
0.1459999999996442 0.0 0.0
0.1469999999996414 0.0 0.0
0.1479999999996384 0.0 0.0
0.1489999999996355 0.0 0.0
0.1499999999996326 0.0 0.0
0.1509999999996297 0.0 0.0
0.1519999999996268 0.0 0.0
0.1529999999996239 0.0 0.0
0.1539999999996209 0.0 0.0
0.154999999999618 0.0 0.0
0.1559999999996151 0.0 0.0
0.1569999999996122 0.0 0.0
0.1579999999996093 0.0 0.0
0.1589999999996064 0.0 0.0
0.1599999999996035 0.0 0.0
0.1609999999996005 0.0 0.0
0.1619999999995976 0.0 0.0
0.1629999999995947 0.0 0.0
0.1639999999995918 0.0 0.0
0.1649999999995889 0.0 0.0
0.165999999999586 0.0 0.0
0.1669999999995831 0.0 0.0
0.1679999999995801 0.0 0.0
0.1689999999995772 0.0 0.0
0.1699999999995743 0.0 0.0
0.1709999999995714 0.0 0.0
0.1719999999995685 0.0 0.0
0.1729999999995655 0.0 0.0
0.1739999999995626 0.0 0.0
0.1749999999995597 0.0 0.0
0.1759999999995568 0.0 0.0
0.1769999999995539 0.0 0.0
0.177999999999551 0.0 0.0
0.178999999999548 0.0 0.0
0.1799999999995451 0.0 0.0
0.1809999999995422 0.0 0.0
0.1819999999995393 0.0 0.0
0.1829999999995364 0.0 0.0
0.1839999999995335 0.0 0.0
0.1849999999995305 0.0 0.0
0.1859999999995277 0.0 0.0
0.1869999999995247 0.0 0.0
0.1879999999995218 0.0 0.0
0.1889999999995189 0.0 0.0
0.189999999999516 0.0 0.0
0.1909999999995131 0.0 0.0
0.1919999999995101 0.0 0.0
0.1929999999995072 0.0 0.0
0.1939999999995043 0.0 0.0
0.1949999999995014 0.0 0.0
0.1959999999994985 0.0 0.0
0.1969999999994956 0.0 0.0
0.1979999999994927 0.0 0.0
0.1989999999994897 0.0 0.0
0.1999999999994868 0.0 0.0
0.2009999999994839 0.0 0.0
0.201999999999481 0.0 0.0
0.2029999999994781 0.0 0.0
0.2039999999994752 0.0 0.0
0.2049999999994722 0.0 0.0
0.2059999999994693 0.0 0.0
0.2069999999994664 0.0 0.0
0.2079999999994635 0.0 0.0
0.2089999999994606 0.0 0.0
0.2099999999994577 0.0 0.0
0.2109999999994548 0.0 0.0
0.2119999999994518 0.0 0.0
0.2129999999994489 0.0 0.0
0.213999999999446 0.0 0.0
0.2149999999994431 0.0 0.0
0.2159999999994402 0.0 0.0
0.2169999999994373 0.0 0.0
0.2179999999994343 0.0 0.0
0.2189999999994314 0.0 0.0
0.2199999999994285 0.0 0.0
0.2209999999994256 0.0 0.0
0.2219999999994227 0.0 0.0
0.2229999999994198 0.0 0.0
0.2239999999994168 0.0 0.0
0.2249999999994139 0.0 0.0
0.225999999999411 0.0 0.0
0.2269999999994081 0.0 0.0
0.2279999999994052 0.0 0.0
0.2289999999994023 0.0 0.0
0.2299999999993994 0.0 0.0
0.2309999999993964 0.0 0.0
0.2319999999993935 0.0 0.0
0.2329999999993906 0.0 0.0
0.2339999999993877 0.0 0.0
0.2349999999993848 0.0 0.0
0.2359999999993818 0.0 0.0
0.236999999999379 0.0 0.0
0.237999999999376 0.0 0.0
0.2389999999993731 0.0 0.0
0.2399999999993702 0.0 0.0
0.2409999999993673 0.0 0.0
0.2419999999993644 0.0 0.0
0.2429999999993615 0.0 0.0
0.2439999999993585 0.0 0.0
0.2449999999993556 0.0 0.0
0.2459999999993527 0.0 0.0
0.246999999999351 0.0 0.0
0.2479999999993495 0.0 0.0
0.248999999999348 0.0 0.0
0.2499999999993464 0.0 0.0
0.2509999999993477 0.0 0.0
0.2519999999993489 0.0 0.0
0.2529999999993502 0.0 0.0
0.2539999999993516 0.0 0.0
0.2549999999993542 0.0 0.0
0.2559999999993569 0.0 0.0
0.2569999999993595 0.0 0.0
0.2579999999993621 0.0 0.0
0.2589999999993647 0.0 0.0
0.2599999999993673 0.0 0.0
0.26099999999937 0.0 0.0
0.2619999999993726 0.0 0.0
0.2629999999993753 0.0 0.0
0.2639999999993779 0.0 0.0
0.2649999999993806 0.0 0.0
0.2659999999993832 0.0 0.0
0.2669999999993858 0.0 0.0
0.2679999999993884 0.0 0.0
0.2689999999993911 0.0 0.0
0.2699999999993937 0.0 0.0
0.2709999999993963 0.0 0.0
0.271999999999399 0.0 0.0
0.2729999999994017 0.0 0.0
0.2739999999994043 0.0 0.0
0.2749999999994069 0.0 0.0
0.2759999999994096 0.0 0.0
0.2769999999994122 0.0 0.0
0.2779999999994148 0.0 0.0
0.2789999999994174 0.0 0.0
0.2799999999994201 0.0 0.0
0.2809999999994228 0.0 0.0
0.2819999999994254 0.0 0.0
0.282999999999428 0.0 0.0
0.2839999999994306 0.0 0.0
0.2849999999994333 0.0 0.0
0.2859999999994359 0.0 0.0
0.2869999999994385 0.0 0.0
0.2879999999994411 0.0 0.0
0.2889999999994439 0.0 0.0
0.2899999999994465 0.0 0.0
0.2909999999994491 0.0 0.0
0.2919999999994517 0.0 0.0
0.2929999999994544 0.0 0.0
0.293999999999457 0.0 0.0
0.2949999999994596 0.0 0.0
0.2959999999994622 0.0 0.0
0.2969999999994649 0.0 0.0
0.2979999999994676 0.0 0.0
0.2989999999994702 0.0 0.0
0.2999999999994728 0.0 0.0
0.3009999999994754 0.0 0.0
0.3019999999994781 0.0 0.0
0.3029999999994807 0.0 0.0
0.3039999999994834 0.0 0.0
0.304999999999486 0.0 0.0
0.3059999999994886 0.0 0.0
0.3069999999994913 0.0 0.0
0.3079999999994939 0.0 0.0
0.3089999999994965 0.0 0.0
0.3099999999994992 0.0 0.0
0.3109999999995018 0.0 0.0
0.3119999999995045 0.0 0.0
0.3129999999995071 0.0 0.0
0.3139999999995097 0.0 0.0
0.3149999999995123 0.0 0.0
0.315999999999515 0.0 0.0
0.3169999999995176 0.0 0.0
0.3179999999995203 0.0 0.0
0.3189999999995229 0.0 0.0
0.3199999999995256 0.0 0.0
0.3209999999995282 0.0 0.0
0.3219999999995308 0.0 0.0
0.3229999999995334 0.0 0.0
0.323999999999536 0.0 0.0
0.3249999999995387 0.0 0.0
0.3259999999995414 0.0 0.0
0.326999999999544 0.0 0.0
0.3279999999995466 0.0 0.0
0.3289999999995493 0.0 0.0
0.3299999999995519 0.0 0.0
0.3309999999995545 0.0 0.0
0.3319999999995571 0.0 0.0
0.3329999999995598 0.0 0.0
0.3339999999995625 0.0 0.0
0.3349999999995651 0.0 0.0
0.3359999999995677 0.0 0.0
0.3369999999995703 0.0 0.0
0.337999999999573 0.0 0.0
0.3389999999995756 0.0 0.0
0.3399999999995783 0.0 0.0
0.3409999999995809 0.0 0.0
0.3419999999995835 0.0 0.0
0.3429999999995862 0.0 0.0
0.3439999999995888 0.0 0.0
0.3449999999995914 0.0 0.0
0.345999999999594 0.0 0.0
0.3469999999995967 0.0 0.0
0.3479999999995994 0.0 0.0
0.348999999999602 0.0 0.0
0.3499999999996046 0.0 0.0
0.3509999999996072 0.0 0.0
0.3519999999996099 0.0 0.0
0.3529999999996125 0.0 0.0
0.3539999999996151 0.0 0.0
0.3549999999996178 0.0 0.0
0.3559999999996205 0.0 0.0
0.3569999999996231 0.0 0.0
0.3579999999996257 0.0 0.0
0.3589999999996283 0.0 0.0
0.359999999999631 0.0 0.0
0.3609999999996336 0.0 0.0
0.3619999999996362 0.0 0.0
[...]
POINT_DATA 7930
SCALARS Disp float 2
LOOKUP_TABLE default
0.0 7.741345349316938e-05
0.0 0.1
0.0 0.1
0.0 0.0
1.3625731210525274e-17 0.0
-7.087348047636584e-06 7.460907403627444e-05
-1.3466750827758397e-05 6.360059148917054e-05
-1.7468514153464097e-05 4.454070713983162e-05
-1.531412690355818e-05 0.0
-1.0836521872081053e-05 0.0
-7.247006056253143e-06 0.0
-5.235615880357337e-06 0.0
-4.038905143199743e-06 0.0
-3.1037333340017e-06 0.0
-2.459098719467279e-06 0.0
-1.8977142322673977e-06 0.0
-1.473094073554325e-06 0.0
-1.1530690303725326e-06 0.0
-8.969302719977279e-07 0.0
-6.883928363150251e-07 0.0
-5.235058819808358e-07 0.0
-3.887942754014478e-07 0.0
-2.8283373356696864e-07 0.0
-1.9935746986489606e-07 0.0
-1.3364763808939513e-07 0.0
-7.956242807940342e-08 0.0
-3.862568190153041e-08 0.0
-7.908257302803965e-09 0.0
1.4889905109203504e-08 0.0
3.104656319345933e-08 0.0
4.3479439656912e-08 0.0
5.170401128361602e-08 0.0
5.698578354360714e-08 0.0
5.980578924173521e-08 0.0
6.082375543190701e-08 0.0
6.052282350704804e-08 0.0
5.917063403094918e-08 0.0
5.710379514827606e-08 0.0
5.4409708636194325e-08 0.0
5.14050493788846e-08 0.0
4.827533643460093e-08 0.0
4.5028426797325634e-08 0.0
4.178469526595562e-08 0.0
3.8579303652274236e-08 0.0
3.547709126157987e-08 0.0
3.250299677330318e-08 0.0
2.968138964126551e-08 0.0
2.7031861721550435e-08 0.0
2.4561295196244592e-08 0.0
2.225799411110763e-08 0.0
2.013135112132484e-08 0.0
1.81679336198417e-08 0.0
1.6365911857897317e-08 0.0
1.4719001674904445e-08 0.0
1.3217688261465819e-08 0.0
1.1854257795727297e-08 0.0
1.0616794363999504e-08 0.0
9.496807365497612e-09 0.0
8.487797494110224e-09 0.0
7.57573277796682e-09 0.0
6.754818802439912e-09 0.0
6.018511400460365e-09 0.0
5.358103106383257e-09 0.0
4.765311958557799e-09 0.0
4.234372693443647e-09 0.0
3.760245098007908e-09 0.0
3.3362806697517597e-09 0.0
2.957669231407389e-09 0.0
2.6202715510143594e-09 0.0
2.320534838581065e-09 0.0
2.0539632637396565e-09 0.0
1.8168316421818912e-09 0.0
1.6060179232662925e-09 0.0
1.4191038969646758e-09 0.0
1.2537132382813207e-09 0.0
1.1072101264488645e-09 0.0
9.772202919069556e-10 0.0
8.61944099573344e-10 0.0
7.599421235379058e-10 0.0
6.698282307109028e-10 0.0
5.901420775640827e-10 0.0
5.197847277655326e-10 0.0
4.5738881964362125e-10 0.0
4.0254572900551376e-10 0.0
3.54283443961135e-10 0.0
3.116138653071997e-10 0.0
2.740160478438622e-10 0.0
2.409290645244618e-10 0.0
2.1162160338008982e-10 0.0
1.858138852839421e-10 0.0
1.6320584577155724e-10 0.0
1.433010495200264e-10 0.0
1.2579358182255526e-10 0.0
1.1039230625321511e-10 0.0
9.685003199639447e-11 0.0
8.499382574499164e-11 0.0
7.453703224339893e-11 0.0
6.53463372152903e-11 0.0
5.7267833959202376e-11 0.0
5.015044767712977e-11 0.0
4.393061668892001e-11 0.0
3.84806359166976e-11 0.0
3.3717728515241926e-11 0.0
2.955669118218937e-11 0.0
2.5865655549941246e-11 0.0
2.2647606850925586e-11 0.0
1.9815847641004276e-11 0.0
1.733327165468847e-11 0.0
1.516000946885336e-11 0.0
1.3264766092475157e-11 0.0
1.1600859107822089e-11 0.0
1.014688833265636e-11 0.0
8.866897409631067e-12 0.0
7.75101914206795e-12 0.0
6.7726115466543814e-12 0.0
5.918082984123753e-12 0.0
5.171064853680312e-12 0.0
4.516491959214325e-12 0.0
3.943660558147401e-12 0.0
3.445106274086828e-12 0.0
3.0093191562073352e-12 0.0
2.627787074515775e-12 0.0
2.2934296371214534e-12 0.0
2.001652893532059e-12 0.0
1.7512527230158795e-12 0.0
1.5257523021941327e-12 0.0
1.3307390672094158e-12 0.0
1.16083476484378e-12 0.0
1.0133029447927823e-12 0.0
8.829413031941551e-13 0.0
7.699084640271285e-13 0.0
6.719295589617326e-13 0.0
5.857986900327754e-13 0.0
5.106754768915836e-13 0.0
4.4497962233554813e-13 0.0
3.8781684473128193e-13 0.0
3.3794335639972337e-13 0.0
2.9444044157953564e-13 0.0
2.565937145885884e-13 0.0
2.2361660093621527e-13 0.0
1.9464113975422902e-13 0.0
1.695778571541835e-13 0.0
1.47693991495538e-13 0.0
1.2860708685361886e-13 0.0
1.1195839746994055e-13 0.0
9.747332183569509e-14 0.0
8.48537928832861e-14 0.0
7.387774484883062e-14 0.0
6.430270379415479e-14 0.0
5.596034518046657e-14 0.0
4.8727982341419935e-14 0.0
4.243405455203539e-14 0.0
3.6913030171565415e-14 0.0
3.2099834774984825e-14 0.0
2.7934860193272253e-14 0.0
2.4303010247710792e-14 0.0
2.1145629680971237e-14 0.0
1.8395720759446794e-14 0.0
1.5994489671878235e-14 0.0
1.3907599455730856e-14 0.0
1.2078745225080567e-14 0.0
1.0530789659555804e-14 0.0
9.141086937283612e-15 0.0
7.945664713835618e-15 0.0
6.9095534982393774e-15 0.0
6.00150459444142e-15 0.0
5.228889561012155e-15 0.0
4.536780755394923e-15 0.0
3.941635701856081e-15 0.0
3.427217404845293e-15 0.0
2.9787869064214514e-15 0.0
2.5892429211938784e-15 0.0
2.249823485712985e-15 0.0
1.9547224948062272e-15 0.0
1.698587808949709e-15 0.0
1.475392486054302e-15 0.0
1.2824389468448496e-15 0.0
1.1146422201445662e-15 0.0
9.682959981572346e-16 0.0
8.410381299818401e-16 0.0
7.30829288498143e-16 0.0
6.351649411819165e-16 0.0
5.517213470581836e-16 0.0
4.794240693289461e-16 0.0
4.1676065765873944e-16 0.0
3.6210177111808735e-16 0.0
3.1483293053717256e-16 0.0
2.739683519760516e-16 0.0
2.383143968441642e-16 0.0
2.071927866694174e-16 0.0
1.8031333428360391e-16 0.0
1.5695127411711524e-16 0.0
1.3669085049053395e-16 0.0
1.1918480044836743e-16 0.0
1.0391138872690329e-16 0.0
9.064293633055483e-17 0.0
7.915360705854053e-17 0.0
6.918764763802652e-17 0.0
6.051963473195475e-17 0.0
5.3043817628548463e-17 0.0
4.6551838394190866e-17 0.0
4.089905321873114e-17 0.0
3.603118191952033e-17 0.0
3.178854592684877e-17 0.0
2.812390715179531e-17 0.0
2.4947070770899946e-17 0.0
2.2187691652173677e-17 0.0
1.9818383322541694e-17 0.0
1.7779850017988902e-17 0.0
1.601719459527942e-17 0.0
1.4498107993153403e-17 0.0
1.318670089107057e-17 0.0
1.205270202136428e-17 0.0
1.1076899057021672e-17 0.0
1.0235188402381774e-17 0.0
9.51926732623211e-18 0.0
8.90003818304623e-18 0.0
8.36095361432372e-18 0.0
7.907278111694216e-18 0.0
7.515321740902713e-18 0.0
7.181883345156319e-18 0.0
6.899195664385009e-18 0.0
6.658238595260775e-18 0.0
6.449967429471466e-18 0.0
6.272224801057511e-18 0.0
6.119881233828559e-18 0.0
5.986724279195866e-18 0.0
5.874639557719957e-18 0.0
5.768657763799552e-18 0.0
5.6761097378031585e-18 0.0
5.600964852571516e-18 0.0
5.539497544172805e-18 0.0
5.487677209318805e-18 0.0
5.453604143087522e-18 0.0
5.424181907504078e-18 0.0
5.395454913094454e-18 0.0
5.3714979250001654e-18 0.0
5.3517004576950925e-18 0.0
5.3382803369187625e-18 0.0
5.3340782839489875e-18 0.0
5.339030797604537e-18 0.0
5.34501274725787e-18 0.0
5.3600710786568324e-18 0.0
5.376220098497938e-18 0.0
5.398420173453773e-18 0.0
5.420081705332086e-18 0.0
5.446738322212416e-18 0.0
5.48101007054929e-18 0.0
5.510669029373676e-18 0.0
5.5439999699718285e-18 0.0
5.572821173733241e-18 0.0
5.5974514422719766e-18 0.0
5.6259769922283284e-18 0.0
5.649829305888025e-18 0.0
5.670761030197593e-18 0.0
5.6934638399561126e-18 0.0
5.720785752558161e-18 0.0
5.742515640188414e-18 0.0
5.765500637162444e-18 0.0
5.78671346912461e-18 0.0
5.807377928731703e-18 0.0
5.833035594382866e-18 0.0
5.861653175523118e-18 0.0
5.8847095837054405e-18 0.0
5.904568312810842e-18 0.0
5.922215744406851e-18 0.0
5.938244300231163e-18 0.0
5.959184704034661e-18 0.0
5.982797161075036e-18 0.0
6.006291411640194e-18 0.0
6.0302363170743415e-18 0.0
6.061212984008061e-18 0.0
6.095755553176249e-18 0.0
6.13293809907566e-18 0.0
6.16671594944684e-18 0.0
6.19422718750906e-18 0.0
6.2226437315082354e-18 0.0
6.2513298430360316e-18 0.0
6.274670095007586e-18 0.0
6.2987392712205386e-18 0.0
6.319053037291172e-18 0.0
6.34126560419623e-18 0.0
6.358431001647009e-18 0.0
6.380140825298572e-18 0.0
6.4016754212836394e-18 0.0
6.4250726601719615e-18 0.0
6.450069935962633e-18 0.0
6.470023512809916e-18 0.0
6.49782257428651e-18 0.0
6.526437929091701e-18 0.0
6.5592418189087455e-18 0.0
6.592771920821079e-18 0.0
6.624405512399595e-18 0.0
6.66101352961322e-18 0.0
6.698850644060747e-18 0.0
6.74001195208555e-18 0.0
6.780523604017732e-18 0.0
6.816981526711012e-18 0.0
6.853585453391195e-18 0.0
6.889402938752041e-18 0.0
6.924423491980961e-18 0.0
6.959906135774759e-18 0.0
6.98937337594292e-18 0.0
7.02618079813017e-18 0.0
7.069214103183213e-18 0.0
7.110414258046515e-18 0.0
7.157151955398257e-18 0.0
7.203842321701406e-18 0.0
7.251904980662726e-18 0.0
7.301225646574214e-18 0.0
7.347841762220931e-18 0.0
7.395175594229382e-18 0.0
7.443544260503832e-18 0.0
7.497265423750859e-18 0.0
7.547970934154144e-18 0.0
7.603878042788134e-18 0.0
7.660075774193723e-18 0.0
7.716681205169833e-18 0.0
7.765901818341718e-18 0.0
7.815753861970147e-18 0.0
7.857089282934461e-18 0.0
7.898888143747621e-18 0.0
7.938693354470466e-18 0.0
7.975816384376319e-18 0.0
8.015557215226096e-18 0.0
8.058227958320307e-18 0.0
8.097820501793284e-18 0.0
8.13784387956714e-18 0.0
8.173418454921568e-18 0.0
8.208426348607233e-18 0.0
8.252109693521843e-18 0.0
8.298079709703648e-18 0.0
8.35050225705435e-18 0.0
8.397276992716207e-18 0.0
8.445169995780976e-18 0.0
8.496479162612678e-18 0.0
8.551278598077314e-18 0.0
8.607754800422567e-18 0.0
8.659201514745623e-18 0.0
8.71304189229017e-18 0.0
8.772254897056342e-18 0.0
8.834254826746892e-18 0.0
8.904575558589046e-18 0.0
8.962111606077244e-18 0.0
9.020730055100886e-18 0.0
9.073004274905839e-18 0.0
9.126221668221309e-18 0.0
9.173336333695908e-18 0.0
9.21654508332421e-18 0.0
9.257605264523495e-18 0.0
9.296766107071964e-18 0.0
9.328661834677263e-18 0.0
9.361433468744465e-18 0.0
9.392756168620634e-18 0.0
9.427676358758437e-18 0.0
9.460479110987422e-18 0.0
9.492220368165966e-18 0.0
9.523120043135987e-18 0.0
9.554969167559238e-18 0.0
9.593268060166472e-18 0.0
9.635992924881761e-18 0.0
9.680770566568752e-18 0.0
9.729497206799175e-18 0.0
9.775441755802798e-18 0.0
9.823097554851087e-18 0.0
9.868550971486754e-18 0.0
9.9173385198203e-18 0.0
9.97158075703961e-18 0.0
1.0026389446118761e-17 0.0
1.0086757971207168e-17 0.0
1.0147719518349345e-17 0.0
1.0203785126773851e-17 0.0
1.0259454793856904e-17 0.0
1.0316953570161791e-17 0.0
1.0372656933850213e-17 0.0
1.0427698600280247e-17 0.0
1.0479886195509955e-17 0.0
1.052780426132124e-17 0.0
1.0575816235711457e-17 0.0
1.061640887196352e-17 0.0
1.0658701905116683e-17 0.0
1.070028788320855e-17 0.0
1.0740233716169139e-17 0.0
1.0776550828837906e-17 0.0
1.08091102934045e-17 0.0
1.0837683963580046e-17 0.0
1.0874215800567662e-17 0.0
1.0909944132061572e-17 0.0
1.0952030476829808e-17 0.0
1.0991913777800678e-17 0.0
1.1034300895581253e-17 0.0
1.107928828599412e-17 0.0
1.1119531952864587e-17 0.0
1.11580968810957e-17 0.0
1.1200288801131322e-17 0.0
1.1236001532451293e-17 0.0
1.127245540755867e-17 0.0
1.1312798253598557e-17 0.0
1.1345007431506477e-17 0.0
1.1372366293265307e-17 0.0
1.1398230296585508e-17 0.0
1.141925166684259e-17 0.0
1.1447391427396113e-17 0.0
1.1466785801246129e-17 0.0
1.1478567973343113e-17 0.0
1.1488059446611597e-17 0.0
1.1505845901536305e-17 0.0
1.1528261182248257e-17 0.0
1.1549368838740512e-17 0.0
1.1567847952882537e-17 0.0
1.1584112234733206e-17 0.0
1.1600878586863303e-17 0.0
1.1617204390884866e-17 0.0
1.1629267027095307e-17 0.0
1.16471092421239e-17 0.0
1.1670066739153903e-17 0.0
1.1683158642604423e-17 0.0
1.1695289499166942e-17 0.0
1.170193293695765e-17 0.0
1.1706898057451703e-17 0.0
1.1719783000137131e-17 0.0
1.1736336393512842e-17 0.0
1.174847248926365e-17 0.0
1.1771661407259053e-17 0.0
1.1789104877484774e-17 0.0
1.1813392191813535e-17 0.0
1.1827849229083448e-17 0.0
1.1842770175835033e-17 0.0
1.1856292048637633e-17 0.0
1.1872349960188484e-17 0.0
1.1883370790064513e-17 0.0
1.1904165002484391e-17 0.0
1.1922974315894004e-17 0.0
1.1948591664836253e-17 0.0
1.196964637452136e-17 0.0
1.198849872014918e-17 0.0
1.2002439078009655e-17 0.0
1.2019684344469443e-17 0.0
1.2032070313912879e-17 0.0
1.2041331484397812e-17 0.0
1.2058171642563122e-17 0.0
1.2076511708896739e-17 0.0
1.209275969801399e-17 0.0
1.2110079930158444e-17 0.0
1.2128093363175563e-17 0.0
1.2146432415913268e-17 0.0
1.2173848557691185e-17 0.0
1.2203214217990423e-17 0.0
1.2230590363412461e-17 0.0
1.2254945203630264e-17 0.0
1.2279019548689928e-17 0.0
1.2303759266677089e-17 0.0
1.2329915510632708e-17 0.0
1.2362085965983178e-17 0.0
1.2396916522380011e-17 0.0
1.2427814162113422e-17 0.0
1.245853235383016e-17 0.0
1.249739530902252e-17 0.0
1.2537003854467196e-17 0.0
1.2570736612220541e-17 0.0
1.2600487411748147e-17 0.0
1.2631673634702127e-17 0.0
1.2667756221000391e-17 0.0
1.2697565980655818e-17 0.0
1.2727519535842898e-17 0.0
1.2752067484807836e-17 0.0
1.2773252531172685e-17 0.0
1.2786337790752595e-17 0.0
1.2799288925656853e-17 0.0
1.2806540055695285e-17 0.0
1.2813589186314543e-17 0.0
1.2818627404679248e-17 0.0
1.2827815973198582e-17 0.0
1.283667084050932e-17 0.0
1.2846375889327512e-17 0.0
1.2853460195514776e-17 0.0
1.2867326080038549e-17 0.0
1.2888704327056998e-17 0.0
1.2912202238244964e-17 0.0
1.2943999293566728e-17 0.0
1.2976689029940966e-17 0.0
1.3011032221059966e-17 0.0
1.3046801096876329e-17 0.0
1.3084161874137398e-17 0.0
1.3123526635569848e-17 0.0
1.3160542229450908e-17 0.0
1.3201280435972056e-17 0.0
1.3244266604597525e-17 0.0
1.3288052662712879e-17 0.0
1.3327686668998339e-17 0.0
1.3363810143127696e-17 0.0
1.3394989408639764e-17 0.0
1.3427173201474731e-17 0.0
1.3454987252245789e-17 0.0
1.3479812518014707e-17 0.0
1.3503938761211972e-17 0.0
1.3523268190936924e-17 0.0
1.3539472692511031e-17 0.0
1.3558106906906284e-17 0.0
1.3571423095363103e-17 0.0
1.3582518222639057e-17 0.0
1.3593827617760634e-17 0.0
1.3602930443991697e-17 0.0
1.3615166923957197e-17 0.0
1.3634704689735778e-17 0.0
1.3641623784397018e-17 0.0
1.3654040079782473e-17 0.0
1.3666084371820755e-17 0.0
1.3679910264003129e-17 0.0
1.3684423283581999e-17 0.0
1.3693747631582808e-17 0.0
1.3701943130451592e-17 0.0
1.369612319138973e-17 0.0
1.3696466056298706e-17 0.0
1.3713879602851903e-17 0.0
1.374882140711668e-17 0.0
1.3819049334794677e-17 0.0
1.3906098431479226e-17 0.0
1.402060898398369e-17 0.0
1.4156962221829717e-17 0.0
1.428537261129832e-17 0.0
1.4412653889969232e-17 0.0
1.4515881976126306e-17 0.0
1.463069600742528e-17 0.0
1.4730673069293986e-17 0.0
1.4833656564157773e-17 0.0
1.5003715751042038e-17 0.0
1.5182816595008455e-17 0.0
1.5348196472458307e-17 0.0
1.556536073007216e-17 0.0
1.5741730857565338e-17 0.0
1.5950704268999554e-17 0.0
1.6224702852365717e-17 0.0
1.6551578678225658e-17 0.0
1.6713706019254074e-17 0.0
1.6957512032217523e-17 0.0
1.7320817684355562e-17 0.0
1.7671911221156762e-17 0.0
1.8190189878182798e-17 0.0
1.8507893942585874e-17 0.0
1.9273011827758646e-17 0.0
1.976737332394091e-17 0.0
2.047798159909589e-17 0.0
2.1388902892061178e-17 0.0
2.2189468787815533e-17 0.0
2.3004310452657988e-17 0.0
2.4214797182834142e-17 0.0
2.5220959541926563e-17 0.0
2.6204123620280566e-17 0.0
2.7676017471653824e-17 0.0
2.904742608482731e-17 0.0
3.0053492777918645e-17 0.0
3.151559393601638e-17 0.0
3.3044115886540154e-17 0.0
3.5453571686436285e-17 0.0
3.7867003801389773e-17 0.0
4.015845397584742e-17 0.0
4.208149822949045e-17 0.0
4.40118626998606e-17 0.0
4.510226037350029e-17 0.0
4.6493905714783086e-17 0.0
4.789835984266825e-17 0.0
4.903745661356787e-17 0.0
4.985312056646208e-17 0.0
4.9947996124603916e-17 0.0
5.047684937451953e-17 0.0
5.0653572329513987e-17 0.0
5.0313471629969685e-17 0.0
4.944402513107987e-17 0.0
4.7916773832459476e-17 0.0
4.4379779192409795e-17 0.0
3.844092154553193e-17 0.0
3.2369457932220177e-17 0.0
2.785895076103008e-17 0.0
2.649201487556256e-17 0.0
2.648897284822531e-17 0.0
2.4594809640431806e-17 0.0
2.299217921182922e-17 0.0
1.8403491216752158e-17 0.0
1.4223583907653764e-17 0.0
9.843779558171566e-18 0.0
6.235564558519236e-18 0.0
2.7921295340348158e-18 0.0
0.0 0.009234165287256032
0.0 0.02210978593044964
0.0 0.04006285207154412
0.0 0.06509563926325809
-2.5451194142171944e-17 0.1
-2.3719439859445743e-17 0.1
-3.4431201162234706e-17 0.1
-3.76672516225032e-17 0.1
0.0 0.09234095951662366
0.0 0.08526779443703732
0.0 0.07873568783499997
0.0 0.07270325358170412
0.0 0.06713226878993235
0.0 0.06198743331090944
0.0 0.057236152337945205
0.0 0.05284831692951209
0.0 0.048796128449944354
0.0 0.04505391065784707
0.0 0.04159795282712706
0.0 0.0384063572425704
0.0 0.03545890171821851
0.0 0.03273691087332374
0.0 0.030223137736027233
0.0 0.02790165483820292
0.0 0.025757753001959902
0.0 0.02377784835211393
0.0 0.02194939580780257
0.0 0.020260810255893553
0.0 0.018701392223652583
0.0 0.01726126159503452
0.0 0.015931293336680197
0.0 0.014703060372940368
0.0 0.013568780782904497
0.0 0.012521267482861366
0.0 0.011553883413523675
0.0 0.010660499143842912
0.0 0.0098354539228311
0.0 0.009073520329637427
0.0 0.008369870608788545
0.0 0.007720046303381126
0.0 0.007119930012359786
0.0 0.006565719473503323
0.0 0.00605390313856736
0.0 0.005581237991563803
0.0 0.005144729226039187
0.0 0.004741611057488201
0.0 0.004369329279130302
0.0 0.004025525044342881
0.0 0.003708020011724203
0.0 0.0034148024235082456
0.0 0.0031440144220396867
0.0 0.002893940270132385
0.0 0.0026629954677668106
0.0 0.002449716685412261
0.0 0.0022527526214289988
0.0 0.002070855251383741
0.0 0.0019028720458818798
0.0 0.0017477386810091093
0.0 0.0016044721594883557
0.0 0.001472164790089256
0.0 0.001349978222646304
0.0 0.001237138279518892
0.0 0.0011329300004296625
0.0 0.001036693140166557
0.0 0.0009478179724618813
0.0 0.000865741539425291
0.0 0.0007899441832909606
0.0 0.000719946491801595
0.0 0.0006553066331375377
0.0 0.0005956182534868545
0.0 0.0005405074486179827
0.0 0.0004896350602049588
0.0 0.00044268733298340705
0.0 0.0003993877072342583
0.0 0.0003594791744032803
0.0 0.0003227375036140189
0.0 0.000288967251800099
0.0 0.00025799711404043236
0.0 0.00022967910045199844
0.0 0.00020388209659355207
0.0 0.00018052688996908966
0.0 0.00015951314133509626
0.0 0.00014085318287678698
0.0 0.00012451517594167137
0.0 0.0001104484468162081
0.0 9.883328181174117e-05
0.0 8.971223818147098e-05
0.0 8.34196164213538e-05
0.0 7.987910279097956e-05
0.0 7.866612884882329e-05
0.0 7.896618896280928e-05
1.515458932068014e-17 0.004927245132661858
8.219423964699094e-18 0.002773874597389736
4.9231883499095835e-18 0.0015359333715498286
8.888687241988703e-13 0.0009049730042726529
7.23545383334963e-18 0.0014042041053077806
1.486822999467661e-17 0.002259784942604712
2.086926553384364e-09 0.0005051763751103909
1.036223872940674e-17 0.001286773473408837
2.6658758169079e-16 0.0007827815987199434
5.287052877605516e-18 0.0007701206757723361
7.745486458133687e-18 0.0007097590365106987
1.0387092635906632e-17 0.0006767768962500067
3.0563193422787956e-17 0.014973736461409976
1.1772278160437508e-17 0.0006657294860763375
1.737423578500836e-11 0.00044431352365954124
6.886376359953504e-14 0.0004391906224224688
1.543812607482083e-17 0.0011704180815624333
1.0428444959552766e-07 0.0002986728138017076
3.3323313411318103e-16 0.00039176462749520446
5.4467050185052135e-18 0.0004232446153798593
6.205804318778535e-18 0.00040049305403301876
6.964539826116494e-18 0.00037727737010161594
8.753708997129895e-18 0.00037799227366882497
1.3224752489813729e-17 0.0006414990043901044
1.030720289203884e-17 0.00035247014978887354
1.1431230755972401e-17 0.00039119165164138136
-2.268644295843003e-20 0.048473971154332544
7.037843467708444e-09 0.00025339819254657466
3.3507181920505555e-10 0.0002423341656490703
1.2112630658445475e-17 0.00033400753026386617
1.277629881164569e-17 0.0003955732173969897
3.309056294937983e-17 0.007989497114757165
2.404113437426479e-17 0.0037118346624276637
1.913947162072744e-11 0.00022194682511025656
8.520928762879978e-13 0.0002313045377515117
4.331833877697289e-14 0.00022203594811631084
2.6866467353200856e-15 0.00020086702166776605
1.670328773358241e-16 0.00019930870159539434
1.0971602914220069e-17 0.000222960275623292
5.467574868482035e-18 0.00021839892709070243
5.593998220143754e-18 0.00020043056540891877
6.275064612486507e-18 0.00022085093682394673
1.0271112071001682e-06 0.00016530415805488956
6.619032187123767e-18 0.00018666584180315111
7.614070422099137e-18 0.00021249040749849203
8.628672344563962e-18 0.00019683474572091309
9.441276328701772e-18 0.00021055617682709825
1.2554921277125058e-17 0.00023517685632601753
1.1162945917849252e-17 0.0002324974215309572