# vtk DataFile Version 3.0
Some data
ASCII
DATASET UNSTRUCTURED_GRID
POINTS 7930 float
0.0 0.0 0.0
0.0 10.0 0.0
10.0 10.0 0.0
10.0 0.0 0.0
0.5 0.0 0.0
0.0009999999999981016 0.0 0.0
0.001999999999996203 0.0 0.0
0.002999999999994305 0.0 0.0
0.003999999999992409 0.0 0.0
0.004999999999990531 0.0 0.0
0.005999999999988653 0.0 0.0
0.006999999999986775 0.0 0.0
0.007999999999984898 0.0 0.0
0.008999999999983018 0.0 0.0
0.009999999999981142 0.0 0.0
0.01099999999997926 0.0 0.0
0.01199999999997736 0.0 0.0
0.0129999999999754 0.0 0.0
0.01399999999997343 0.0 0.0
0.01499999999997147 0.0 0.0
0.01599999999996944 0.0 0.0
0.0169999999999673 0.0 0.0
0.01799999999996516 0.0 0.0
0.01899999999996302 0.0 0.0
0.01999999999996084 0.0 0.0
0.02099999999995862 0.0 0.0
0.02199999999995639 0.0 0.0
0.02299999999995417 0.0 0.0
0.02399999999995195 0.0 0.0
0.02499999999994972 0.0 0.0
0.0259999999999475 0.0 0.0
0.02699999999994527 0.0 0.0
0.02799999999994315 0.0 0.0
0.0289999999999411 0.0 0.0
0.02999999999993905 0.0 0.0
0.030999999999937 0.0 0.0
0.03199999999993521 0.0 0.0
0.0329999999999335 0.0 0.0
0.0339999999999318 0.0 0.0
0.03499999999993009 0.0 0.0
0.03599999999992853 0.0 0.0
0.036999999999927 0.0 0.0
0.03799999999992547 0.0 0.0
0.03899999999992394 0.0 0.0
0.03999999999992241 0.0 0.0
0.04099999999992088 0.0 0.0
0.04199999999991934 0.0 0.0
0.04299999999991782 0.0 0.0
0.04399999999991629 0.0 0.0
0.04499999999991475 0.0 0.0
0.04599999999991322 0.0 0.0
0.0469999999999117 0.0 0.0
0.04799999999991016 0.0 0.0
0.04899999999990863 0.0 0.0
0.0499999999999071 0.0 0.0
0.05099999999990557 0.0 0.0
0.05199999999990404 0.0 0.0
0.05299999999990251 0.0 0.0
0.05399999999990097 0.0 0.0
0.05499999999989943 0.0 0.0
0.05599999999989791 0.0 0.0
0.05699999999989638 0.0 0.0
0.05799999999989484 0.0 0.0
0.05899999999989317 0.0 0.0
0.05999999999989129 0.0 0.0
0.06099999999988941 0.0 0.0
0.06199999999988753 0.0 0.0
0.06299999999988531 0.0 0.0
0.06399999999988273 0.0 0.0
0.06499999999988015 0.0 0.0
0.06599999999987759 0.0 0.0
0.0669999999998748 0.0 0.0
0.06799999999987189 0.0 0.0
0.06899999999986897 0.0 0.0
0.06999999999986604 0.0 0.0
0.07099999999986313 0.0 0.0
0.0719999999998602 0.0 0.0
0.07299999999985729 0.0 0.0
0.07399999999985438 0.0 0.0
0.07499999999985145 0.0 0.0
0.07599999999984854 0.0 0.0
0.07699999999984562 0.0 0.0
0.0779999999998427 0.0 0.0
0.07899999999983978 0.0 0.0
0.07999999999983685 0.0 0.0
0.08099999999983394 0.0 0.0
0.08199999999983103 0.0 0.0
0.0829999999998281 0.0 0.0
0.08399999999982519 0.0 0.0
0.08499999999982226 0.0 0.0
0.08599999999981935 0.0 0.0
0.08699999999981643 0.0 0.0
0.0879999999998135 0.0 0.0
0.08899999999981059 0.0 0.0
0.08999999999980766 0.0 0.0
0.09099999999980475 0.0 0.0
0.09199999999980184 0.0 0.0
0.09299999999979891 0.0 0.0
0.093999999999796 0.0 0.0
0.09499999999979307 0.0 0.0
0.09599999999979016 0.0 0.0
0.09699999999978724 0.0 0.0
0.09799999999978432 0.0 0.0
0.0989999999997814 0.0 0.0
0.09999999999977847 0.0 0.0
0.1009999999997756 0.0 0.0
0.1019999999997726 0.0 0.0
0.1029999999997697 0.0 0.0
0.1039999999997668 0.0 0.0
0.1049999999997639 0.0 0.0
0.105999999999761 0.0 0.0
0.106999999999758 0.0 0.0
0.1079999999997551 0.0 0.0
0.1089999999997522 0.0 0.0
0.1099999999997493 0.0 0.0
0.1109999999997464 0.0 0.0
0.1119999999997434 0.0 0.0
0.1129999999997405 0.0 0.0
0.1139999999997376 0.0 0.0
0.1149999999997347 0.0 0.0
0.1159999999997318 0.0 0.0
0.1169999999997288 0.0 0.0
0.1179999999997259 0.0 0.0
0.118999999999723 0.0 0.0
0.1199999999997201 0.0 0.0
0.1209999999997172 0.0 0.0
0.1219999999997143 0.0 0.0
0.1229999999997113 0.0 0.0
0.1239999999997084 0.0 0.0
0.1249999999997055 0.0 0.0
0.1259999999997026 0.0 0.0
0.1269999999996997 0.0 0.0
0.1279999999996967 0.0 0.0
0.1289999999996938 0.0 0.0
0.1299999999996909 0.0 0.0
0.130999999999688 0.0 0.0
0.1319999999996851 0.0 0.0
0.1329999999996822 0.0 0.0
0.1339999999996792 0.0 0.0
0.1349999999996764 0.0 0.0
0.1359999999996734 0.0 0.0
0.1369999999996705 0.0 0.0
0.1379999999996676 0.0 0.0
0.1389999999996647 0.0 0.0
0.1399999999996618 0.0 0.0
0.1409999999996588 0.0 0.0
0.1419999999996559 0.0 0.0
0.142999999999653 0.0 0.0
0.1439999999996501 0.0 0.0
0.1449999999996472 0.0 0.0
0.1459999999996442 0.0 0.0
0.1469999999996414 0.0 0.0
0.1479999999996384 0.0 0.0
0.1489999999996355 0.0 0.0
0.1499999999996326 0.0 0.0
0.1509999999996297 0.0 0.0
0.1519999999996268 0.0 0.0
0.1529999999996239 0.0 0.0
0.1539999999996209 0.0 0.0
0.154999999999618 0.0 0.0
0.1559999999996151 0.0 0.0
0.1569999999996122 0.0 0.0
0.1579999999996093 0.0 0.0
0.1589999999996064 0.0 0.0
0.1599999999996035 0.0 0.0
0.1609999999996005 0.0 0.0
0.1619999999995976 0.0 0.0
0.1629999999995947 0.0 0.0
0.1639999999995918 0.0 0.0
0.1649999999995889 0.0 0.0
0.165999999999586 0.0 0.0
0.1669999999995831 0.0 0.0
0.1679999999995801 0.0 0.0
0.1689999999995772 0.0 0.0
0.1699999999995743 0.0 0.0
0.1709999999995714 0.0 0.0
0.1719999999995685 0.0 0.0
0.1729999999995655 0.0 0.0
0.1739999999995626 0.0 0.0
0.1749999999995597 0.0 0.0
0.1759999999995568 0.0 0.0
0.1769999999995539 0.0 0.0
0.177999999999551 0.0 0.0
0.178999999999548 0.0 0.0
0.1799999999995451 0.0 0.0
0.1809999999995422 0.0 0.0
0.1819999999995393 0.0 0.0
0.1829999999995364 0.0 0.0
0.1839999999995335 0.0 0.0
0.1849999999995305 0.0 0.0
0.1859999999995277 0.0 0.0
0.1869999999995247 0.0 0.0
0.1879999999995218 0.0 0.0
0.1889999999995189 0.0 0.0
0.189999999999516 0.0 0.0
0.1909999999995131 0.0 0.0
0.1919999999995101 0.0 0.0
0.1929999999995072 0.0 0.0
0.1939999999995043 0.0 0.0
0.1949999999995014 0.0 0.0
0.1959999999994985 0.0 0.0
0.1969999999994956 0.0 0.0
0.1979999999994927 0.0 0.0
0.1989999999994897 0.0 0.0
0.1999999999994868 0.0 0.0
0.2009999999994839 0.0 0.0
0.201999999999481 0.0 0.0
0.2029999999994781 0.0 0.0
0.2039999999994752 0.0 0.0
0.2049999999994722 0.0 0.0
0.2059999999994693 0.0 0.0
0.2069999999994664 0.0 0.0
0.2079999999994635 0.0 0.0
0.2089999999994606 0.0 0.0
0.2099999999994577 0.0 0.0
0.2109999999994548 0.0 0.0
0.2119999999994518 0.0 0.0
0.2129999999994489 0.0 0.0
0.213999999999446 0.0 0.0
0.2149999999994431 0.0 0.0
0.2159999999994402 0.0 0.0
0.2169999999994373 0.0 0.0
0.2179999999994343 0.0 0.0
0.2189999999994314 0.0 0.0
0.2199999999994285 0.0 0.0
0.2209999999994256 0.0 0.0
0.2219999999994227 0.0 0.0
0.2229999999994198 0.0 0.0
0.2239999999994168 0.0 0.0
0.2249999999994139 0.0 0.0
0.225999999999411 0.0 0.0
0.2269999999994081 0.0 0.0
0.2279999999994052 0.0 0.0
0.2289999999994023 0.0 0.0
0.2299999999993994 0.0 0.0
0.2309999999993964 0.0 0.0
0.2319999999993935 0.0 0.0
0.2329999999993906 0.0 0.0
0.2339999999993877 0.0 0.0
0.2349999999993848 0.0 0.0
0.2359999999993818 0.0 0.0
0.236999999999379 0.0 0.0
0.237999999999376 0.0 0.0
0.2389999999993731 0.0 0.0
0.2399999999993702 0.0 0.0
0.2409999999993673 0.0 0.0
0.2419999999993644 0.0 0.0
0.2429999999993615 0.0 0.0
0.2439999999993585 0.0 0.0
0.2449999999993556 0.0 0.0
0.2459999999993527 0.0 0.0
0.246999999999351 0.0 0.0
0.2479999999993495 0.0 0.0
0.248999999999348 0.0 0.0
0.2499999999993464 0.0 0.0
0.2509999999993477 0.0 0.0
0.2519999999993489 0.0 0.0
0.2529999999993502 0.0 0.0
0.2539999999993516 0.0 0.0
0.2549999999993542 0.0 0.0
0.2559999999993569 0.0 0.0
0.2569999999993595 0.0 0.0
0.2579999999993621 0.0 0.0
0.2589999999993647 0.0 0.0
0.2599999999993673 0.0 0.0
0.26099999999937 0.0 0.0
0.2619999999993726 0.0 0.0
0.2629999999993753 0.0 0.0
0.2639999999993779 0.0 0.0
0.2649999999993806 0.0 0.0
0.2659999999993832 0.0 0.0
0.2669999999993858 0.0 0.0
0.2679999999993884 0.0 0.0
0.2689999999993911 0.0 0.0
0.2699999999993937 0.0 0.0
0.2709999999993963 0.0 0.0
0.271999999999399 0.0 0.0
0.2729999999994017 0.0 0.0
0.2739999999994043 0.0 0.0
0.2749999999994069 0.0 0.0
0.2759999999994096 0.0 0.0
0.2769999999994122 0.0 0.0
0.2779999999994148 0.0 0.0
0.2789999999994174 0.0 0.0
0.2799999999994201 0.0 0.0
0.2809999999994228 0.0 0.0
0.2819999999994254 0.0 0.0
0.282999999999428 0.0 0.0
0.2839999999994306 0.0 0.0
0.2849999999994333 0.0 0.0
0.2859999999994359 0.0 0.0
0.2869999999994385 0.0 0.0
0.2879999999994411 0.0 0.0
0.2889999999994439 0.0 0.0
0.2899999999994465 0.0 0.0
0.2909999999994491 0.0 0.0
0.2919999999994517 0.0 0.0
0.2929999999994544 0.0 0.0
0.293999999999457 0.0 0.0
0.2949999999994596 0.0 0.0
0.2959999999994622 0.0 0.0
0.2969999999994649 0.0 0.0
0.2979999999994676 0.0 0.0
0.2989999999994702 0.0 0.0
0.2999999999994728 0.0 0.0
0.3009999999994754 0.0 0.0
0.3019999999994781 0.0 0.0
0.3029999999994807 0.0 0.0
0.3039999999994834 0.0 0.0
0.304999999999486 0.0 0.0
0.3059999999994886 0.0 0.0
0.3069999999994913 0.0 0.0
0.3079999999994939 0.0 0.0
0.3089999999994965 0.0 0.0
0.3099999999994992 0.0 0.0
0.3109999999995018 0.0 0.0
0.3119999999995045 0.0 0.0
0.3129999999995071 0.0 0.0
0.3139999999995097 0.0 0.0
0.3149999999995123 0.0 0.0
0.315999999999515 0.0 0.0
0.3169999999995176 0.0 0.0
0.3179999999995203 0.0 0.0
0.3189999999995229 0.0 0.0
0.3199999999995256 0.0 0.0
0.3209999999995282 0.0 0.0
0.3219999999995308 0.0 0.0
0.3229999999995334 0.0 0.0
0.323999999999536 0.0 0.0
0.3249999999995387 0.0 0.0
0.3259999999995414 0.0 0.0
0.326999999999544 0.0 0.0
0.3279999999995466 0.0 0.0
0.3289999999995493 0.0 0.0
0.3299999999995519 0.0 0.0
0.3309999999995545 0.0 0.0
0.3319999999995571 0.0 0.0
0.3329999999995598 0.0 0.0
0.3339999999995625 0.0 0.0
0.3349999999995651 0.0 0.0
0.3359999999995677 0.0 0.0
0.3369999999995703 0.0 0.0
0.337999999999573 0.0 0.0
0.3389999999995756 0.0 0.0
0.3399999999995783 0.0 0.0
0.3409999999995809 0.0 0.0
0.3419999999995835 0.0 0.0
0.3429999999995862 0.0 0.0
0.3439999999995888 0.0 0.0
0.3449999999995914 0.0 0.0
0.345999999999594 0.0 0.0
0.3469999999995967 0.0 0.0
0.3479999999995994 0.0 0.0
0.348999999999602 0.0 0.0
0.3499999999996046 0.0 0.0
0.3509999999996072 0.0 0.0
0.3519999999996099 0.0 0.0
0.3529999999996125 0.0 0.0
0.3539999999996151 0.0 0.0
0.3549999999996178 0.0 0.0
0.3559999999996205 0.0 0.0
0.3569999999996231 0.0 0.0
0.3579999999996257 0.0 0.0
0.3589999999996283 0.0 0.0
0.359999999999631 0.0 0.0
0.3609999999996336 0.0 0.0
0.3619999999996362 0.0 0.0
[...]
POINT_DATA 7930
SCALARS Disp float 2
LOOKUP_TABLE default
0.0 0.0011073575066624418
0.0 0.1
0.0 0.1
0.0 0.0
8.395225684028358e-08 0.0
-6.860904247849599e-06 0.001107249882381342
-1.3696854169917825e-05 0.0011066089239614271
-2.040659763977822e-05 0.001105224556850242
-2.7113691308556576e-05 0.0011039269201512272
-3.403908404647707e-05 0.0011029106888316425
-4.114172275432877e-05 0.0011005969518010164
-4.7714650674800204e-05 0.0010966313566457277
-5.400788548725998e-05 0.0010936071312793562
-6.093413500573257e-05 0.0010916450434737036
-6.826384348129957e-05 0.0010884969867655551
-7.515779255995306e-05 0.001082342707558019
-8.130721415075735e-05 0.0010771754688178527
-8.821145573003018e-05 0.001073886291945598
-9.556893348809575e-05 0.0010689656357989463
-0.00010238069895170893 0.0010611311077834177
-0.00010853741671364372 0.001054092420780915
-0.0001153477708525999 0.0010493445972643684
-0.0001232318768470356 0.0010427961524436436
-0.0001303929701269024 0.0010326613214072852
-0.000136395292873773 0.0010228952391973204
-0.00014300892767604413 0.0010164791826036094
-0.00015082564788980804 0.001008141120521658
-0.00015789442734138085 0.0009955458020060538
-0.0001636623143416771 0.0009835210691170944
-0.00017009729074432255 0.0009752069047541381
-0.0001779395109036322 0.0009652750192982459
-0.00018502076128487204 0.0009504690080404107
-0.0001910093858939651 0.0009359094368006969
-0.00019750735314384298 0.0009248339665462826
-0.00020544505448843472 0.0009122409713354839
-0.0002126225070676206 0.0008945941031306417
-0.0002186219610906643 0.0008767296998122224
-0.00022494063924929016 0.0008627314422065429
-0.0002322552245547414 0.0008477928738946091
-0.00023966162754855615 0.0008269209528872527
-0.0002456883271813129 0.0008053551094459138
-0.0002519270438492539 0.0007878010089164632
-0.00025988534678749733 0.0007690868080587343
-0.00026730341567020506 0.0007437314788111941
-0.000273233030729437 0.0007168812207545972
-0.0002792311410221663 0.0006941161824665466
-0.0002863514231835364 0.0006704388460513845
-0.0002939385723596648 0.0006390819771596239
-0.0003001636102290532 0.0006050305457482295
-0.0003058879048811931 0.0005742705094012381
-0.00031368572509044896 0.000541680366200545
-0.00032142112350052536 0.0004999886483550527
-0.0003267620420458916 0.00045261629006458875
-0.00033254627020565855 0.0004051896367839721
-0.00033866838184940505 0.0003519841364096299
-0.0003469317257343368 0.0002779069859499407
-0.0003461863167228897 0.00018251833352970584
-0.0003217318727406258 0.0
-0.00028623814141195 0.0
-0.00026440313092250284 0.0
-0.00024796959906259793 0.0
-0.00023450463143488682 0.0
-0.00022303822892875448 0.0
-0.00021326248042907714 0.0
-0.00020469192095403196 0.0
-0.00019692619349760977 0.0
-0.00018990880540578313 0.0
-0.00018345827056351387 0.0
-0.0001774705768235066 0.0
-0.00017191607539510917 0.0
-0.00016676390944169472 0.0
-0.0001619212260593609 0.0
-0.000157360605209912 0.0
-0.00015307425554110534 0.0
-0.00014903628023662675 0.0
-0.0001451885447829552 0.0
-0.00014153749425215272 0.0
-0.0001380603406270278 0.0
-0.00013472404171845561 0.0
-0.00013154156403767802 0.0
-0.00012850186029185405 0.0
-0.00012558717995496648 0.0
-0.00012279093096522663 0.0
-0.00012008719467785755 0.0
-0.0001174873460085667 0.0
-0.00011498148393334643 0.0
-0.00011255550945161179 0.0
-0.00011020836966970141 0.0
-0.00010794699547505921 0.0
-0.00010574770765228829 0.0
-0.00010361166407165468 0.0
-0.0001015461427324113 0.0
-9.954395378426323e-05 0.0
-9.760571372249586e-05 0.0
-9.572102751760958e-05 0.0
-9.389252731047578e-05 0.0
-9.21173967017582e-05 0.0
-9.039116423837175e-05 0.0
-8.871385835218977e-05 0.0
-8.708688345662072e-05 0.0
-8.550389784654921e-05 0.0
-8.395775818185199e-05 0.0
-8.245195757591356e-05 0.0
-8.09792299080499e-05 0.0
-7.954559736771152e-05 0.0
-7.814416793714739e-05 0.0
-7.677771336007961e-05 0.0
-7.544282332922272e-05 0.0
-7.41380921293711e-05 0.0
-7.286142233788658e-05 0.0
-7.160495120030609e-05 0.0
-7.037869640311667e-05 0.0
-6.91859097581157e-05 0.0
-6.800100179842629e-05 0.0
-6.684634029479414e-05 0.0
-6.57153681299268e-05 0.0
-6.460280059584525e-05 0.0
-6.351248314731552e-05 0.0
-6.244318348167053e-05 0.0
-6.139152316280592e-05 0.0
-6.0360245504958713e-05 0.0
-5.934953825759391e-05 0.0
-5.8358066804458476e-05 0.0
-5.738962720592614e-05 0.0
-5.642758101186706e-05 0.0
-5.54893660154042e-05 0.0
-5.4565555663146074e-05 0.0
-5.3660988891895235e-05 0.0
-5.2768046832961195e-05 0.0
-5.1892680341541415e-05 0.0
-5.1032142696212535e-05 0.0
-5.018645166902855e-05 0.0
-4.9354886552831224e-05 0.0
-4.853799126586221e-05 0.0
-4.773508596955256e-05 0.0
-4.694565573934269e-05 0.0
-4.616927186777684e-05 0.0
-4.540759495676461e-05 0.0
-4.466087354970239e-05 0.0
-4.392125226275726e-05 0.0
-4.319654984709673e-05 0.0
-4.2482611574729726e-05 0.0
-4.178039005887395e-05 0.0
-4.108862680749304e-05 0.0
-4.040741708046335e-05 0.0
-3.973701847177105e-05 0.0
-3.9076734701009296e-05 0.0
-3.842611108023943e-05 0.0
-3.778374516806672e-05 0.0
-3.715066544907605e-05 0.0
-3.65264569693943e-05 0.0
-3.591017260508905e-05 0.0
-3.530219744963496e-05 0.0
-3.4701844601374386e-05 0.0
-3.4108533408525573e-05 0.0
-3.3522556251947886e-05 0.0
-3.294386044787485e-05 0.0
-3.237173260596133e-05 0.0
-3.1806216564352314e-05 0.0
-3.12481955370065e-05 0.0
-3.0698028876579516e-05 0.0
-3.015235649193674e-05 0.0
-2.961589551686786e-05 0.0
-2.908569933590742e-05 0.0
-2.8562642043748494e-05 0.0
-2.8047614710846306e-05 0.0
-2.7537096512367892e-05 0.0
-2.7035570477277066e-05 0.0
-2.654125974939669e-05 0.0
-2.6054129220558636e-05 0.0
-2.5574352536418792e-05 0.0
-2.5101743196082427e-05 0.0
-2.4635963288192364e-05 0.0
-2.4176944658854806e-05 0.0
-2.3724894086443982e-05 0.0
-2.3279292448290284e-05 0.0
-2.2839904389165092e-05 0.0
-2.2407196608233353e-05 0.0
-2.1980860851803324e-05 0.0
-2.1560177567172632e-05 0.0
-2.114504857918834e-05 0.0
-2.0735592338392485e-05 0.0
-2.03315093167945e-05 0.0
-1.9931840465325648e-05 0.0
-1.95369407929949e-05 0.0
-1.9146701360131782e-05 0.0
-1.876050812065469e-05 0.0
-1.8378259603988032e-05 0.0
-1.7999867563980418e-05 0.0
-1.7625485436719188e-05 0.0
-1.725439201883442e-05 0.0
-1.688683778119629e-05 0.0
-1.652272850029098e-05 0.0
-1.616194439943879e-05 0.0
-1.5804633186415392e-05 0.0
-1.5450901113949412e-05 0.0
-1.5100312392677117e-05 0.0
-1.4753178495863356e-05 0.0
-1.4409390264382609e-05 0.0
-1.4069258594066449e-05 0.0
-1.3733041481806582e-05 0.0
-1.340030075872582e-05 0.0
-1.307122926352051e-05 0.0
-1.2746211136638209e-05 0.0
-1.2424926846589002e-05 0.0
-1.2107637650361037e-05 0.0
-1.1794475406153491e-05 0.0
-1.1485583697458387e-05 0.0
-1.118081198290611e-05 0.0
-1.0880593166558873e-05 0.0
-1.0583789699119807e-05 0.0
-1.0291249959409464e-05 0.0
-1.0002810824347581e-05 0.0
-9.718650771518089e-06 0.0
-9.438467207643211e-06 0.0
-9.162326453035585e-06 0.0
-8.89001521717825e-06 0.0
-8.62132938697859e-06 0.0
-8.35639303650458e-06 0.0
-8.095463205164933e-06 0.0
-7.836987743456263e-06 0.0
-7.582187692843838e-06 0.0
-7.330695264536395e-06 0.0
-7.082036339533465e-06 0.0
-6.836233148665528e-06 0.0
-6.593287434357392e-06 0.0
-6.35292291457395e-06 0.0
-6.114962021807775e-06 0.0
-5.8794458455607385e-06 0.0
-5.646260017158312e-06 0.0
-5.4152923081510295e-06 0.0
-5.1865678820401415e-06 0.0
-4.959893140806326e-06 0.0
-4.735239136037769e-06 0.0
-4.512607980167404e-06 0.0
-4.291912472147555e-06 0.0
-4.073102243955281e-06 0.0
-3.8563146860703825e-06 0.0
-3.641587657250619e-06 0.0
-3.4287481294533853e-06 0.0
-3.218080423111039e-06 0.0
-3.0094300798593195e-06 0.0
-2.8030619467086686e-06 0.0
-2.598923478047276e-06 0.0
-2.3969945485756883e-06 0.0
-2.197421040224682e-06 0.0
-2.0002784404379693e-06 0.0
-1.8055539336958405e-06 0.0
-1.613350249132876e-06 0.0
-1.423869836300625e-06 0.0
-1.2371707824368247e-06 0.0
-1.0532391179021814e-06 0.0
-8.721090219536505e-07 0.0
-6.940466216154637e-07 0.0
-5.190180535464246e-07 0.0
-3.4695344695802997e-07 0.0
-1.7800576115753708e-07 0.0
-1.2275579611054956e-08 0.0
1.5044937860569626e-07 0.0
3.0994471842075694e-07 0.0
4.663227727823295e-07 0.0
6.194022055997522e-07 0.0
7.692296560504371e-07 0.0
9.157956424807611e-07 0.0
1.0591786428966688e-06 0.0
1.1993691577020289e-06 0.0
1.3364571614283128e-06 0.0
1.47040204531278e-06 0.0
1.6012489363889707e-06 0.0
1.7291702788448714e-06 0.0
1.8540183956146493e-06 0.0
1.975852318907209e-06 0.0
2.0948294731165173e-06 0.0
2.2108022592379908e-06 0.0
2.324475438608162e-06 0.0
2.4351567851063194e-06 0.0
2.5429718738611348e-06 0.0
2.648398172500516e-06 0.0
2.7510792697010416e-06 0.0
2.85127875002739e-06 0.0
2.9488136923085383e-06 0.0
3.0438546154049525e-06 0.0
3.1365639633859103e-06 0.0
3.2267844404699636e-06 0.0
3.3147553294158064e-06 0.0
3.400196656257094e-06 0.0
3.4831548000552735e-06 0.0
3.563945349649795e-06 0.0
3.642368157030983e-06 0.0
3.7186094104588444e-06 0.0
3.7925460090231774e-06 0.0
3.864031251495834e-06 0.0
3.933283957911211e-06 0.0
4.000127764483743e-06 0.0
4.064904678458681e-06 0.0
4.127341733877852e-06 0.0
4.187528433342949e-06 0.0
4.245195208461559e-06 0.0
4.300464799000513e-06 0.0
4.3536538702621305e-06 0.0
4.40441393066039e-06 0.0
4.45282207028634e-06 0.0
4.498865279347169e-06 0.0
4.542575472086684e-06 0.0
4.583889062574456e-06 0.0
4.622934673540912e-06 0.0
4.659571408053334e-06 0.0
4.69387828040271e-06 0.0
4.725832126026453e-06 0.0
4.7554438009414795e-06 0.0
4.782772431419853e-06 0.0
4.807785358803911e-06 0.0
4.830725113521346e-06 0.0
4.851414406562849e-06 0.0
4.8698448699413e-06 0.0
4.886045159116821e-06 0.0
4.900091828783988e-06 0.0
4.912266978492722e-06 0.0
4.9223593253427885e-06 0.0
4.930496105179598e-06 0.0
4.936705158495355e-06 0.0
4.940926816329302e-06 0.0
4.943280706118693e-06 0.0
4.943881496466214e-06 0.0
4.942951485143901e-06 0.0
4.94032263712073e-06 0.0
4.936073193546322e-06 0.0
4.930446678387983e-06 0.0
4.923349485496913e-06 0.0
4.914810037158538e-06 0.0
4.905031474073123e-06 0.0
4.893934242494852e-06 0.0
4.8816878284761245e-06 0.0
4.868306043450929e-06 0.0
4.853823912246485e-06 0.0
4.838401287755744e-06 0.0
4.822035917842618e-06 0.0
4.80480963118323e-06 0.0
4.786751002555285e-06 0.0
4.767943576767544e-06 0.0
4.748438397281791e-06 0.0
4.728291520349584e-06 0.0
4.707545918269627e-06 0.0
4.686202533026213e-06 0.0
4.664325353107156e-06 0.0
4.64195412192761e-06 0.0
4.6191328787624326e-06 0.0
4.5958845463528646e-06 0.0
4.572221262863877e-06 0.0
4.548141346735219e-06 0.0
4.523738079820993e-06 0.0
4.498971195108658e-06 0.0
4.473902214678251e-06 0.0
4.448558871865626e-06 0.0
4.422868056071809e-06 0.0
4.396850649981984e-06 0.0
4.370589160437955e-06 0.0
4.344009428164034e-06 0.0
4.317163134573058e-06 0.0
4.290016968657855e-06 0.0
4.2625286444055835e-06 0.0
4.234777839410931e-06 0.0
4.206711623761361e-06 0.0
4.178328857644277e-06 0.0
4.149647046747302e-06 0.0
4.120600141847365e-06 0.0
4.091184949003149e-06 0.0
4.061423798211536e-06 0.0
4.031277705388746e-06 0.0
4.000745710808439e-06 0.0
3.969816954268334e-06 0.0
3.938465349909623e-06 0.0
3.90668748730856e-06 0.0
3.874469776110809e-06 0.0
3.841824209576054e-06 0.0
3.8087179759923683e-06 0.0
3.7751324497893186e-06 0.0
3.7410646425826375e-06 0.0
3.706513727535373e-06 0.0
3.671468258879741e-06 0.0
3.635930860552894e-06 0.0
3.5998821693902984e-06 0.0
3.5633344000709777e-06 0.0
3.526324605944063e-06 0.0
3.4887907879073257e-06 0.0
3.450722564868617e-06 0.0
3.4121918101182863e-06 0.0
3.3731992083035083e-06 0.0
3.3336885206194934e-06 0.0
3.293693753800601e-06 0.0
3.2532529002342733e-06 0.0
3.2123667891886635e-06 0.0
3.1710395595479916e-06 0.0
3.129307718021117e-06 0.0
3.087150622396988e-06 0.0
3.0445854334775555e-06 0.0
3.0016700504602523e-06 0.0
2.9584054125819596e-06 0.0
2.9148071068754223e-06 0.0
2.8709190258726555e-06 0.0
2.826727907096666e-06 0.0
2.7822755581820745e-06 0.0
2.7375920507589555e-06 0.0
2.6926934032337154e-06 0.0
2.64761240498137e-06 0.0
2.6023822390410573e-06 0.0
2.5570252338541165e-06 0.0
2.51156848965799e-06 0.0
2.466041028481314e-06 0.0
2.4204714643329544e-06 0.0
2.374890185043334e-06 0.0
2.3293250712393604e-06 0.0
2.2838065610417427e-06 0.0
2.238360355378018e-06 0.0
2.193018265653226e-06 0.0
2.147806067384554e-06 0.0
2.102751295063558e-06 0.0
2.057887444367386e-06 0.0
2.0132398667754142e-06 0.0
1.9688324227713893e-06 0.0
1.9246984614204987e-06 0.0
1.8808603907610669e-06 0.0
1.8373343171417686e-06 0.0
1.7941556907766554e-06 0.0
1.75133990792646e-06 0.0
1.7089144994290563e-06 0.0
1.6669076327971707e-06 0.0
1.6253315023196347e-06 0.0
1.5841826252079406e-06 0.0
1.5435328892075223e-06 0.0
1.5033724690661262e-06 0.0
1.4637294561452945e-06 0.0
1.424597522601991e-06 0.0
1.3860013548601852e-06 0.0
1.347960347680658e-06 0.0
1.3104833745632481e-06 0.0
1.2735785106099043e-06 0.0
1.2372568822506742e-06 0.0
1.201540982324901e-06 0.0
1.1664423537389748e-06 0.0
1.1319656516401944e-06 0.0
1.0981142176608317e-06 0.0
1.0649005629515802e-06 0.0
1.0323245445112739e-06 0.0
1.0003583229673432e-06 0.0
9.690630751952114e-07 0.0
9.384260091891517e-07 0.0
9.084460387863134e-07 0.0
8.791085928099689e-07 0.0
8.504370964357664e-07 0.0
8.223781116737932e-07 0.0
7.9500406794732e-07 0.0
7.682733680425977e-07 0.0
7.421802224405275e-07 0.0
7.167401673261204e-07 0.0
6.919328463852244e-07 0.0
6.677485104106543e-07 0.0
6.441913092720001e-07 0.0
6.212548621917433e-07 0.0
5.989329333319764e-07 0.0
5.772492298239702e-07 0.0
5.56130761938972e-07 0.0
5.356226764346814e-07 0.0
5.156981430086407e-07 0.0
4.963572078749856e-07 0.0
4.77597458444216e-07 0.0
4.5939962732463117e-07 0.0
4.417410628340128e-07 0.0
4.246053534290983e-07 0.0
4.0801940729573694e-07 0.0
3.919889476975575e-07 0.0
3.764781850520162e-07 0.0
3.6142950609852204e-07 0.0
3.4688455894916337e-07 0.0
3.3281303867747234e-07 0.0
3.1921734358330476e-07 0.0
3.060789642612843e-07 0.0
2.933977166017475e-07 0.0
2.8115710181599165e-07 0.0
2.6933050467036005e-07 0.0
2.579389263707529e-07 0.0
2.4696048088348456e-07 0.0
2.3638895687444705e-07 0.0
2.2619316975252665e-07 0.0
2.1637076879820815e-07 0.0
2.0691098335536678e-07 0.0
1.9781296541467144e-07 0.0
1.890806383004184e-07 0.0
1.806557562632451e-07 0.0
1.7256397285888676e-07 0.0
1.6479000931036112e-07 0.0
1.5731699270987486e-07 0.0
1.5015785048811515e-07 0.0
1.432683750816617e-07 0.0
1.3665292594057666e-07 0.0
1.3031435919580388e-07 0.0
1.2423797463170056e-07 0.0
1.1840465544746925e-07 0.0
1.1281830053362673e-07 0.0
1.0746735012257312e-07 0.0
1.0234804435420358e-07 0.0
9.744202734274794e-08 0.0
9.273543156707338e-08 0.0
8.824634259748025e-08 0.0
7.969828721851655e-08 0.0
7.529708173873477e-08 0.0
7.075787154895775e-08 0.0
6.610234751267202e-08 0.0
6.135964452421115e-08 0.0
5.655303010275582e-08 0.0
5.17160413998286e-08 0.0
4.68884908247269e-08 0.0
4.2109262527574346e-08 0.0
3.7420703224699156e-08 0.0
3.287534017414196e-08 0.0
2.850355127015801e-08 0.0
2.4372522067845257e-08 0.0
2.05042245242146e-08 0.0
1.6939319129314855e-08 0.0
1.3736876155436228e-08 0.0
1.0908997508765752e-08 0.0
8.43808033305754e-09 0.0
6.3779320185423634e-09 0.0
4.666648060602101e-09 0.0
3.2987626580166837e-09 0.0
2.243874014211355e-09 0.0
1.477861675536554e-09 0.0
9.151457232589094e-10 0.0
5.444746338792112e-10 0.0
3.016877492175935e-10 0.0
1.5741530022279697e-10 0.0
7.677811477595055e-11 0.0
3.4115626256612825e-11 0.0
1.3969969170672612e-11 0.0
5.128526624481292e-12 0.0
1.6540375609519633e-12 0.0
4.5194089990580996e-13 0.0
1.0942741213543452e-13 0.0
2.1161307893111297e-14 0.0
3.0390020696773933e-15 0.0
3.121382408184687e-16 0.0
1.3998513451486947e-17 0.0
-9.350447370574805e-18 0.0
-5.168766639911728e-18 0.0
1.3448225912523e-18 0.0
9.56203855228509e-18 0.0
2.6789364053283135e-17 0.0
3.9691803219514417e-17 0.0
6.451090348672202e-17 0.0
4.310696554293306e-17 0.0
3.582156790945501e-17 0.0
3.349321262184407e-17 0.0
3.753744873758976e-17 0.0
4.772027450553794e-17 0.0
1.0710181405212764e-16 0.0
9.421348510738364e-18 0.0
1.0618004977962925e-17 0.0
5.727058871352695e-17 0.0
7.461755467000778e-19 0.0
-4.6912505880611443e-17 0.0
-2.853305092210074e-17 0.0
6.391667219934421e-17 0.0
7.789755817230649e-17 0.0
6.4824809303836e-17 0.0
1.23041621470808e-16 0.0
2.1603756384897439e-16 0.0
7.81276226278743e-17 0.0
-2.966311766884233e-17 0.0
6.668595004705393e-17 0.0
-1.3013903691032825e-16 0.0
1.718279960957452e-16 0.0
6.719568987384258e-17 0.0
-1.7167701392723775e-16 0.0
3.4837054258434233e-16 0.0
-1.35608994608389e-16 0.0
1.7605852332828101e-16 0.0
-9.314055312929918e-17 0.0
-1.7471635062797768e-16 0.0
5.721955121229207e-16 0.0
-1.6462595436355108e-17 0.0
-3.3552276372778516e-16 0.0
1.518636043342218e-16 0.0
-1.919027040988418e-16 0.0
0.0 0.00923416528725956
0.0 0.022109785930452302
0.0 0.0400628520715078
0.0 0.06509563926320078
-2.4528866652331144e-16 0.1
-3.9349372451280195e-16 0.1
4.848744482600593e-15 0.1
-5.603797433191886e-15 0.1
0.0 0.09234095951662832
0.0 0.08526779443702809
0.0 0.07873568783497935
0.0 0.0727032535816852
0.0 0.06713226878995285
0.0 0.06198743331092395
0.0 0.05723615233795386
0.0 0.05284831692952343
0.0 0.048796128449947504
0.0 0.045053910657839785
0.0 0.04159795282712381
0.0 0.03840635724257238
0.0 0.035458901718222954
0.0 0.03273691087332847
0.0 0.03022313773603243
0.0 0.027901654838206096
0.0 0.025757753001960784
0.0 0.02377784835211329
0.0 0.021949395807804074
0.0 0.020260810255895628
0.0 0.018701392223652556
0.0 0.01726126159503511
0.0 0.015931293336681224
0.0 0.014703060372940826
0.0 0.013568780782904301
0.0 0.012521267482861061
0.0 0.011553883413523633
0.0 0.010660499143842551
0.0 0.009835453922830077
0.0 0.009073520329624047
0.0 0.008369870608907544
0.0 0.007720046301079728
0.0 0.007119930031772264
0.0 0.006565719392687998
0.0 0.006053903534554886
0.0 0.0055812354757545654
0.0 0.0051447292484186145
0.0 0.00474229727664822
0.0 0.004373365664025786
0.0 0.004035733504410201
0.0 0.003725424200842032
0.0 0.003441610677443213
0.0 0.0031820641955153666
0.0 0.0029450962672995747
0.0 0.002730228126424882
0.0 0.00253466911312862
0.0 0.002357234713014379
0.0 0.002196968294062205
0.0 0.002051593969969704
0.0 0.0019209781631009284
0.0 0.0018044423882510267
0.0 0.0017002525983576585
0.0 0.0016077629427266697
0.0 0.0015263910822707072
0.0 0.0014550618265642419
0.0 0.0013933647580137004
0.0 0.0013403269156179543
0.0 0.0012955142409800374
0.0 0.0012580757605476914
0.0 0.0012273947297289048
0.0 0.001202620285359854
0.0 0.0011832264404075157
0.0 0.0011685565338912585
0.0 0.0011569589529478543
0.0 0.0011491334657895659
0.0 0.0011427815033388572
0.0 0.0011386281239620332
0.0 0.0011358588506220541
0.0 0.0011339241670105932
0.0 0.0011326615289730117
0.0 0.001131481431246276
0.0 0.0011304519790749483
0.0 0.0011292358384747188
0.0 0.0011278888400778665
0.0 0.0011262894436029859
0.0 0.0011246228635277127
0.0 0.0011227933573211444
0.0 0.0011208197469620954
0.0 0.0011187129818107408
0.0 0.001116390791172562
0.0 0.001114106890539598
0.0 0.0011118685790776895
0.0 0.0011096636796934342
1.8867700206239303e-12 0.00492724513947633
5.946712384793065e-06 0.0027786292922429914
4.515249381119537e-05 0.001571773199655029
6.930334917761092e-05 0.0010352614431136124
1.1139286348064143e-05 0.001405386143003553
1.7824014120219037e-09 0.002259786230068683
9.358949299451496e-05 0.0008434812352673017
1.1881385912817249e-06 0.0012870572726687082
1.6175934417199033e-05 0.0007931579015385757
9.696778509151362e-06 0.0007651556983010622
6.8906751592473405e-06 0.0007089647188804909
3.5652367350431815e-06 0.0006770507182586371
7.069785079477403e-17 0.014973736461408054
6.623438170037781e-07 0.0006658074280461939
1.0865356963848329e-05 0.0005074675941773428
-9.587683719119686e-06 0.00045010713347744973
1.258112396496952e-09 0.0011704184029678211
5.839521729439716e-05 0.0009563474559024104
-9.054121680305636e-06 0.0003909359934699484
-9.648289713892318e-07 0.00041965726404677797
3.6052495000428004e-06 0.0003969612071562658
5.457270784797415e-06 0.00037591151184812355
5.145687764216699e-06 0.00037772708331895434
3.631709461835434e-08 0.0006415034868428933
3.976492210200656e-06 0.0003525425750830044