# vtk DataFile Version 3.0
Some data
ASCII
DATASET UNSTRUCTURED_GRID
POINTS 7930 float
0.0 0.0 0.0
0.0 10.0 0.0
10.0 10.0 0.0
10.0 0.0 0.0
0.5 0.0 0.0
0.0009999999999981016 0.0 0.0
0.001999999999996203 0.0 0.0
0.002999999999994305 0.0 0.0
0.003999999999992409 0.0 0.0
0.004999999999990531 0.0 0.0
0.005999999999988653 0.0 0.0
0.006999999999986775 0.0 0.0
0.007999999999984898 0.0 0.0
0.008999999999983018 0.0 0.0
0.009999999999981142 0.0 0.0
0.01099999999997926 0.0 0.0
0.01199999999997736 0.0 0.0
0.0129999999999754 0.0 0.0
0.01399999999997343 0.0 0.0
0.01499999999997147 0.0 0.0
0.01599999999996944 0.0 0.0
0.0169999999999673 0.0 0.0
0.01799999999996516 0.0 0.0
0.01899999999996302 0.0 0.0
0.01999999999996084 0.0 0.0
0.02099999999995862 0.0 0.0
0.02199999999995639 0.0 0.0
0.02299999999995417 0.0 0.0
0.02399999999995195 0.0 0.0
0.02499999999994972 0.0 0.0
0.0259999999999475 0.0 0.0
0.02699999999994527 0.0 0.0
0.02799999999994315 0.0 0.0
0.0289999999999411 0.0 0.0
0.02999999999993905 0.0 0.0
0.030999999999937 0.0 0.0
0.03199999999993521 0.0 0.0
0.0329999999999335 0.0 0.0
0.0339999999999318 0.0 0.0
0.03499999999993009 0.0 0.0
0.03599999999992853 0.0 0.0
0.036999999999927 0.0 0.0
0.03799999999992547 0.0 0.0
0.03899999999992394 0.0 0.0
0.03999999999992241 0.0 0.0
0.04099999999992088 0.0 0.0
0.04199999999991934 0.0 0.0
0.04299999999991782 0.0 0.0
0.04399999999991629 0.0 0.0
0.04499999999991475 0.0 0.0
0.04599999999991322 0.0 0.0
0.0469999999999117 0.0 0.0
0.04799999999991016 0.0 0.0
0.04899999999990863 0.0 0.0
0.0499999999999071 0.0 0.0
0.05099999999990557 0.0 0.0
0.05199999999990404 0.0 0.0
0.05299999999990251 0.0 0.0
0.05399999999990097 0.0 0.0
0.05499999999989943 0.0 0.0
0.05599999999989791 0.0 0.0
0.05699999999989638 0.0 0.0
0.05799999999989484 0.0 0.0
0.05899999999989317 0.0 0.0
0.05999999999989129 0.0 0.0
0.06099999999988941 0.0 0.0
0.06199999999988753 0.0 0.0
0.06299999999988531 0.0 0.0
0.06399999999988273 0.0 0.0
0.06499999999988015 0.0 0.0
0.06599999999987759 0.0 0.0
0.0669999999998748 0.0 0.0
0.06799999999987189 0.0 0.0
0.06899999999986897 0.0 0.0
0.06999999999986604 0.0 0.0
0.07099999999986313 0.0 0.0
0.0719999999998602 0.0 0.0
0.07299999999985729 0.0 0.0
0.07399999999985438 0.0 0.0
0.07499999999985145 0.0 0.0
0.07599999999984854 0.0 0.0
0.07699999999984562 0.0 0.0
0.0779999999998427 0.0 0.0
0.07899999999983978 0.0 0.0
0.07999999999983685 0.0 0.0
0.08099999999983394 0.0 0.0
0.08199999999983103 0.0 0.0
0.0829999999998281 0.0 0.0
0.08399999999982519 0.0 0.0
0.08499999999982226 0.0 0.0
0.08599999999981935 0.0 0.0
0.08699999999981643 0.0 0.0
0.0879999999998135 0.0 0.0
0.08899999999981059 0.0 0.0
0.08999999999980766 0.0 0.0
0.09099999999980475 0.0 0.0
0.09199999999980184 0.0 0.0
0.09299999999979891 0.0 0.0
0.093999999999796 0.0 0.0
0.09499999999979307 0.0 0.0
0.09599999999979016 0.0 0.0
0.09699999999978724 0.0 0.0
0.09799999999978432 0.0 0.0
0.0989999999997814 0.0 0.0
0.09999999999977847 0.0 0.0
0.1009999999997756 0.0 0.0
0.1019999999997726 0.0 0.0
0.1029999999997697 0.0 0.0
0.1039999999997668 0.0 0.0
0.1049999999997639 0.0 0.0
0.105999999999761 0.0 0.0
0.106999999999758 0.0 0.0
0.1079999999997551 0.0 0.0
0.1089999999997522 0.0 0.0
0.1099999999997493 0.0 0.0
0.1109999999997464 0.0 0.0
0.1119999999997434 0.0 0.0
0.1129999999997405 0.0 0.0
0.1139999999997376 0.0 0.0
0.1149999999997347 0.0 0.0
0.1159999999997318 0.0 0.0
0.1169999999997288 0.0 0.0
0.1179999999997259 0.0 0.0
0.118999999999723 0.0 0.0
0.1199999999997201 0.0 0.0
0.1209999999997172 0.0 0.0
0.1219999999997143 0.0 0.0
0.1229999999997113 0.0 0.0
0.1239999999997084 0.0 0.0
0.1249999999997055 0.0 0.0
0.1259999999997026 0.0 0.0
0.1269999999996997 0.0 0.0
0.1279999999996967 0.0 0.0
0.1289999999996938 0.0 0.0
0.1299999999996909 0.0 0.0
0.130999999999688 0.0 0.0
0.1319999999996851 0.0 0.0
0.1329999999996822 0.0 0.0
0.1339999999996792 0.0 0.0
0.1349999999996764 0.0 0.0
0.1359999999996734 0.0 0.0
0.1369999999996705 0.0 0.0
0.1379999999996676 0.0 0.0
0.1389999999996647 0.0 0.0
0.1399999999996618 0.0 0.0
0.1409999999996588 0.0 0.0
0.1419999999996559 0.0 0.0
0.142999999999653 0.0 0.0
0.1439999999996501 0.0 0.0
0.1449999999996472 0.0 0.0
0.1459999999996442 0.0 0.0
0.1469999999996414 0.0 0.0
0.1479999999996384 0.0 0.0
0.1489999999996355 0.0 0.0
0.1499999999996326 0.0 0.0
0.1509999999996297 0.0 0.0
0.1519999999996268 0.0 0.0
0.1529999999996239 0.0 0.0
0.1539999999996209 0.0 0.0
0.154999999999618 0.0 0.0
0.1559999999996151 0.0 0.0
0.1569999999996122 0.0 0.0
0.1579999999996093 0.0 0.0
0.1589999999996064 0.0 0.0
0.1599999999996035 0.0 0.0
0.1609999999996005 0.0 0.0
0.1619999999995976 0.0 0.0
0.1629999999995947 0.0 0.0
0.1639999999995918 0.0 0.0
0.1649999999995889 0.0 0.0
0.165999999999586 0.0 0.0
0.1669999999995831 0.0 0.0
0.1679999999995801 0.0 0.0
0.1689999999995772 0.0 0.0
0.1699999999995743 0.0 0.0
0.1709999999995714 0.0 0.0
0.1719999999995685 0.0 0.0
0.1729999999995655 0.0 0.0
0.1739999999995626 0.0 0.0
0.1749999999995597 0.0 0.0
0.1759999999995568 0.0 0.0
0.1769999999995539 0.0 0.0
0.177999999999551 0.0 0.0
0.178999999999548 0.0 0.0
0.1799999999995451 0.0 0.0
0.1809999999995422 0.0 0.0
0.1819999999995393 0.0 0.0
0.1829999999995364 0.0 0.0
0.1839999999995335 0.0 0.0
0.1849999999995305 0.0 0.0
0.1859999999995277 0.0 0.0
0.1869999999995247 0.0 0.0
0.1879999999995218 0.0 0.0
0.1889999999995189 0.0 0.0
0.189999999999516 0.0 0.0
0.1909999999995131 0.0 0.0
0.1919999999995101 0.0 0.0
0.1929999999995072 0.0 0.0
0.1939999999995043 0.0 0.0
0.1949999999995014 0.0 0.0
0.1959999999994985 0.0 0.0
0.1969999999994956 0.0 0.0
0.1979999999994927 0.0 0.0
0.1989999999994897 0.0 0.0
0.1999999999994868 0.0 0.0
0.2009999999994839 0.0 0.0
0.201999999999481 0.0 0.0
0.2029999999994781 0.0 0.0
0.2039999999994752 0.0 0.0
0.2049999999994722 0.0 0.0
0.2059999999994693 0.0 0.0
0.2069999999994664 0.0 0.0
0.2079999999994635 0.0 0.0
0.2089999999994606 0.0 0.0
0.2099999999994577 0.0 0.0
0.2109999999994548 0.0 0.0
0.2119999999994518 0.0 0.0
0.2129999999994489 0.0 0.0
0.213999999999446 0.0 0.0
0.2149999999994431 0.0 0.0
0.2159999999994402 0.0 0.0
0.2169999999994373 0.0 0.0
0.2179999999994343 0.0 0.0
0.2189999999994314 0.0 0.0
0.2199999999994285 0.0 0.0
0.2209999999994256 0.0 0.0
0.2219999999994227 0.0 0.0
0.2229999999994198 0.0 0.0
0.2239999999994168 0.0 0.0
0.2249999999994139 0.0 0.0
0.225999999999411 0.0 0.0
0.2269999999994081 0.0 0.0
0.2279999999994052 0.0 0.0
0.2289999999994023 0.0 0.0
0.2299999999993994 0.0 0.0
0.2309999999993964 0.0 0.0
0.2319999999993935 0.0 0.0
0.2329999999993906 0.0 0.0
0.2339999999993877 0.0 0.0
0.2349999999993848 0.0 0.0
0.2359999999993818 0.0 0.0
0.236999999999379 0.0 0.0
0.237999999999376 0.0 0.0
0.2389999999993731 0.0 0.0
0.2399999999993702 0.0 0.0
0.2409999999993673 0.0 0.0
0.2419999999993644 0.0 0.0
0.2429999999993615 0.0 0.0
0.2439999999993585 0.0 0.0
0.2449999999993556 0.0 0.0
0.2459999999993527 0.0 0.0
0.246999999999351 0.0 0.0
0.2479999999993495 0.0 0.0
0.248999999999348 0.0 0.0
0.2499999999993464 0.0 0.0
0.2509999999993477 0.0 0.0
0.2519999999993489 0.0 0.0
0.2529999999993502 0.0 0.0
0.2539999999993516 0.0 0.0
0.2549999999993542 0.0 0.0
0.2559999999993569 0.0 0.0
0.2569999999993595 0.0 0.0
0.2579999999993621 0.0 0.0
0.2589999999993647 0.0 0.0
0.2599999999993673 0.0 0.0
0.26099999999937 0.0 0.0
0.2619999999993726 0.0 0.0
0.2629999999993753 0.0 0.0
0.2639999999993779 0.0 0.0
0.2649999999993806 0.0 0.0
0.2659999999993832 0.0 0.0
0.2669999999993858 0.0 0.0
0.2679999999993884 0.0 0.0
0.2689999999993911 0.0 0.0
0.2699999999993937 0.0 0.0
0.2709999999993963 0.0 0.0
0.271999999999399 0.0 0.0
0.2729999999994017 0.0 0.0
0.2739999999994043 0.0 0.0
0.2749999999994069 0.0 0.0
0.2759999999994096 0.0 0.0
0.2769999999994122 0.0 0.0
0.2779999999994148 0.0 0.0
0.2789999999994174 0.0 0.0
0.2799999999994201 0.0 0.0
0.2809999999994228 0.0 0.0
0.2819999999994254 0.0 0.0
0.282999999999428 0.0 0.0
0.2839999999994306 0.0 0.0
0.2849999999994333 0.0 0.0
0.2859999999994359 0.0 0.0
0.2869999999994385 0.0 0.0
0.2879999999994411 0.0 0.0
0.2889999999994439 0.0 0.0
0.2899999999994465 0.0 0.0
0.2909999999994491 0.0 0.0
0.2919999999994517 0.0 0.0
0.2929999999994544 0.0 0.0
0.293999999999457 0.0 0.0
0.2949999999994596 0.0 0.0
0.2959999999994622 0.0 0.0
0.2969999999994649 0.0 0.0
0.2979999999994676 0.0 0.0
0.2989999999994702 0.0 0.0
0.2999999999994728 0.0 0.0
0.3009999999994754 0.0 0.0
0.3019999999994781 0.0 0.0
0.3029999999994807 0.0 0.0
0.3039999999994834 0.0 0.0
0.304999999999486 0.0 0.0
0.3059999999994886 0.0 0.0
0.3069999999994913 0.0 0.0
0.3079999999994939 0.0 0.0
0.3089999999994965 0.0 0.0
0.3099999999994992 0.0 0.0
0.3109999999995018 0.0 0.0
0.3119999999995045 0.0 0.0
0.3129999999995071 0.0 0.0
0.3139999999995097 0.0 0.0
0.3149999999995123 0.0 0.0
0.315999999999515 0.0 0.0
0.3169999999995176 0.0 0.0
0.3179999999995203 0.0 0.0
0.3189999999995229 0.0 0.0
0.3199999999995256 0.0 0.0
0.3209999999995282 0.0 0.0
0.3219999999995308 0.0 0.0
0.3229999999995334 0.0 0.0
0.323999999999536 0.0 0.0
0.3249999999995387 0.0 0.0
0.3259999999995414 0.0 0.0
0.326999999999544 0.0 0.0
0.3279999999995466 0.0 0.0
0.3289999999995493 0.0 0.0
0.3299999999995519 0.0 0.0
0.3309999999995545 0.0 0.0
0.3319999999995571 0.0 0.0
0.3329999999995598 0.0 0.0
0.3339999999995625 0.0 0.0
0.3349999999995651 0.0 0.0
0.3359999999995677 0.0 0.0
0.3369999999995703 0.0 0.0
0.337999999999573 0.0 0.0
0.3389999999995756 0.0 0.0
0.3399999999995783 0.0 0.0
0.3409999999995809 0.0 0.0
0.3419999999995835 0.0 0.0
0.3429999999995862 0.0 0.0
0.3439999999995888 0.0 0.0
0.3449999999995914 0.0 0.0
0.345999999999594 0.0 0.0
0.3469999999995967 0.0 0.0
0.3479999999995994 0.0 0.0
0.348999999999602 0.0 0.0
0.3499999999996046 0.0 0.0
0.3509999999996072 0.0 0.0
0.3519999999996099 0.0 0.0
0.3529999999996125 0.0 0.0
0.3539999999996151 0.0 0.0
0.3549999999996178 0.0 0.0
0.3559999999996205 0.0 0.0
0.3569999999996231 0.0 0.0
0.3579999999996257 0.0 0.0
0.3589999999996283 0.0 0.0
0.359999999999631 0.0 0.0
0.3609999999996336 0.0 0.0
0.3619999999996362 0.0 0.0
[...]
POINT_DATA 7930
SCALARS Disp float 2
LOOKUP_TABLE default
0.0 0.00035073090366669876
0.0 0.1
0.0 0.1
0.0 0.0
1.4207963653763916e-17 0.0
-7.011393886015508e-06 0.00035022195002523676
-1.3968012911217098e-05 0.00034820922351235347
-2.0655320475153398e-05 0.0003442965148684814
-2.7204666902817928e-05 0.000339363374037076
-3.374926966962865e-05 0.0003345982145255358
-4.115176899586803e-05 0.00032851385356147834
-4.860361736185306e-05 0.00031821620559096983
-5.500101212660645e-05 0.0003061959522936699
-6.141391073077448e-05 0.00029428820168038157
-6.825696440640897e-05 0.0002816946247125099
-7.559680174551999e-05 0.00026319748165146536
-8.231963918774339e-05 0.00024118201995306822
-8.856350517998935e-05 0.00021807587887073018
-9.499691571628006e-05 0.00019090126826348198
-0.00010220820828378168 0.00015195391983684886
-0.00010414226641134944 9.872116995693639e-05
-9.322469560922776e-05 0.0
-7.558733184070344e-05 0.0
-6.43988174952095e-05 0.0
-5.7855743208817664e-05 0.0
-5.212784400800062e-05 0.0
-4.7774837116837444e-05 0.0
-4.41289712555211e-05 0.0
-4.096594375618035e-05 0.0
-3.828954815893906e-05 0.0
-3.571796703101187e-05 0.0
-3.34405869822663e-05 0.0
-3.1374585448500823e-05 0.0
-2.949521981930524e-05 0.0
-2.7756342318936835e-05 0.0
-2.6150566894140234e-05 0.0
-2.4657906953051043e-05 0.0
-2.3274606600971508e-05 0.0
-2.198664917699789e-05 0.0
-2.0774313917890747e-05 0.0
-1.9638275027063543e-05 0.0
-1.8576836140096654e-05 0.0
-1.7578812613912975e-05 0.0
-1.664696287631791e-05 0.0
-1.5772391130527496e-05 0.0
-1.495287546604833e-05 0.0
-1.4182100429548476e-05 0.0
-1.3453215307420022e-05 0.0
-1.2764007966564606e-05 0.0
-1.2115344982100676e-05 0.0
-1.15009804535636e-05 0.0
-1.0920584050511708e-05 0.0
-1.0368508386614171e-05 0.0
-9.841246844173217e-06 0.0
-9.33536309432334e-06 0.0
-8.85101722096586e-06 0.0
-8.386567473139145e-06 0.0
-7.939360325032901e-06 0.0
-7.4983737220820904e-06 0.0
-7.076541198935053e-06 0.0
-6.66817985817168e-06 0.0
-6.271936387632701e-06 0.0
-5.885738644443336e-06 0.0
-5.510570679777356e-06 0.0
-5.1449709630477046e-06 0.0
-4.787699588915851e-06 0.0
-4.439932158646993e-06 0.0
-4.1012449700863695e-06 0.0
-3.771126360782326e-06 0.0
-3.4507679487916893e-06 0.0
-3.14012225569303e-06 0.0
-2.8384914271010353e-06 0.0
-2.5464479640128844e-06 0.0
-2.264789357450005e-06 0.0
-1.9940051857486623e-06 0.0
-1.7333740209949865e-06 0.0
-1.4831965681635126e-06 0.0
-1.2435176006096083e-06 0.0
-1.0145435518985271e-06 0.0
-7.969406152056833e-07 0.0
-5.905815663728848e-07 0.0
-3.9542183008848265e-07 0.0
-2.1104867940670263e-07 0.0
-3.813895118286604e-08 0.0
1.232046958163432e-07 0.0
2.739366750759177e-07 0.0
4.1381662699962643e-07 0.0
5.428727573568258e-07 0.0
6.622444620458716e-07 0.0
7.716174579035422e-07 0.0
8.706887712025561e-07 0.0
9.601158907626392e-07 0.0
1.0402125445551155e-06 0.0
1.111423967088771e-06 0.0
1.174062343282876e-06 0.0
1.2281176362830712e-06 0.0
1.274762671435237e-06 0.0
1.3140670807443118e-06 0.0
1.3465443945095014e-06 0.0
1.3726305563776006e-06 0.0
1.3921026598431347e-06 0.0
1.4057763171206045e-06 0.0
1.413751131669262e-06 0.0
1.4165357811533005e-06 0.0
1.4153214990935431e-06 0.0
1.4094277992492055e-06 0.0
1.399719792940894e-06 0.0
1.3864068846561602e-06 0.0
1.3697636721065253e-06 0.0
1.3500212627452997e-06 0.0
1.3277518240417788e-06 0.0
1.3029819376780082e-06 0.0
1.27626836126495e-06 0.0
1.2478029234787602e-06 0.0
1.2177998487002844e-06 0.0
1.186419021059153e-06 0.0
1.1539526047230435e-06 0.0
1.1206416211699767e-06 0.0
1.0866570213890748e-06 0.0
1.0521392864498474e-06 0.0
1.0173142236548389e-06 0.0
9.823107617736713e-07 0.0
9.472912702073788e-07 0.0
9.123336806226106e-07 0.0
8.776499480816153e-07 0.0
8.43284866044685e-07 0.0
8.093287909870327e-07 0.0
7.758657650992846e-07 0.0
7.430156053395124e-07 0.0
7.107622946115586e-07 0.0
6.792291745063424e-07 0.0
6.484828517753492e-07 0.0
6.185000188902601e-07 0.0
5.893424661959899e-07 0.0
5.610273527069896e-07 0.0
5.335973254816711e-07 0.0
5.070620040137092e-07 0.0
4.814219476545011e-07 0.0
4.567048632446363e-07 0.0
4.32912995515179e-07 0.0
4.099721395247966e-07 0.0
3.879859165367044e-07 0.0
3.6688877416271384e-07 0.0
3.466708687381019e-07 0.0
3.273189093782015e-07 0.0
3.088299943048623e-07 0.0
2.911745492463061e-07 0.0
2.7434319387568e-07 0.0
2.583006216575909e-07 0.0
2.430283516262125e-07 0.0
2.285295749637214e-07 0.0
2.1475947377797117e-07 0.0
2.0165533053792598e-07 0.0
1.8922144840005436e-07 0.0
1.774683262882632e-07 0.0
1.6633585693412757e-07 0.0
1.558138491914049e-07 0.0
1.4586810488745505e-07 0.0
1.3646481341479305e-07 0.0
1.2759868180218278e-07 0.0
1.1921482420498562e-07 0.0
1.1141115946238675e-07 0.0
1.0396481908275097e-07 0.0
9.699290316928976e-08 0.0
9.044979251372274e-08 0.0
8.428251732124711e-08 0.0
7.855252170312283e-08 0.0
7.310434024077524e-08 0.0
6.802252889925592e-08 0.0
6.327539571275027e-08 0.0
5.882565217512748e-08 0.0
5.4664322257850106e-08 0.0
5.0768309053878466e-08 0.0
4.71271632007971e-08 0.0
4.3728772425868275e-08 0.0
4.0552942761484764e-08 0.0
3.759830410882486e-08 0.0
3.4843057956449836e-08 0.0
3.227055371464541e-08 0.0
2.9874419402366985e-08 0.0
2.7647722827713573e-08 0.0
2.5576795498324407e-08 0.0
2.3646892861618767e-08 0.0
2.1855524838620174e-08 0.0
2.019345664643893e-08 0.0
1.8646777924334325e-08 0.0
1.7214568798395674e-08 0.0
1.588932955292986e-08 0.0
1.4657602876404356e-08 0.0
1.3512767852911212e-08 0.0
1.2455278220352022e-08 0.0
1.1475341343015248e-08 0.0
1.0568922538605999e-08 0.0
9.732586710901234e-09 0.0
8.956969290519636e-09 0.0
8.23957569147083e-09 0.0
7.577705926824072e-09 0.0
6.966398883256387e-09 0.0
6.401514638092801e-09 0.0
5.882218646895429e-09 0.0
5.402847812456977e-09 0.0
4.959595663428155e-09 0.0
4.552539045026771e-09 0.0
4.176497066580268e-09 0.0
3.8308907192218945e-09 0.0
3.512534229448729e-09 0.0
3.2186602170703764e-09 0.0
2.9492270793262225e-09 0.0
2.701974579526436e-09 0.0
2.4742439108640784e-09 0.0
2.265299376239077e-09 0.0
2.0734277033688726e-09 0.0
1.8970037427291427e-09 0.0
1.7349307565530027e-09 0.0
1.5863989674931299e-09 0.0
1.4503928155477747e-09 0.0
1.3254490771019378e-09 0.0
1.2108923421352042e-09 0.0
1.1060646356699758e-09 0.0
1.0096974149015133e-09 0.0
9.217052592393005e-10 0.0
8.410324165493217e-10 0.0
7.672709350428643e-10 0.0
6.998537021609125e-10 0.0
6.381122825590171e-10 0.0
5.817475214443823e-10 0.0
5.302075007416506e-10 0.0
4.830460524628358e-10 0.0
4.3996383757179047e-10 0.0
4.005980341248662e-10 0.0
3.6476284012958924e-10 0.0
3.320261713389052e-10 0.0
3.021347899085262e-10 0.0
2.748689010964444e-10 0.0
2.499030890514304e-10 0.0
2.272119167565838e-10 0.0
2.0657742458995404e-10 0.0
1.877215018175509e-10 0.0
1.7056461383594224e-10 0.0
1.5496573760018718e-10 0.0
1.4073578066350033e-10 0.0
1.277713530094567e-10 0.0
1.1599394312120843e-10 0.0
1.0527244481579597e-10 0.0
9.550880302461652e-11 0.0
8.664015294292468e-11 0.0
7.858802231801043e-11 0.0
7.123775008641072e-11 0.0
6.45692213230482e-11 0.0
5.852729418363395e-11 0.0
5.3019523338043976e-11 0.0
4.8035073894075157e-11 0.0
4.350754415388798e-11 0.0
3.939647614657016e-11 0.0
3.567253870972572e-11 0.0
3.228787120810255e-11 0.0
2.9218024671882985e-11 0.0
2.6444722405423284e-11 0.0
2.392081919271273e-11 0.0
2.1630884808765207e-11 0.0
1.955559413999166e-11 0.0
1.7679104641047288e-11 0.0
1.598078225454289e-11 0.0
1.444366685647951e-11 0.0
1.3051038393272486e-11 0.0
1.179093204777624e-11 0.0
1.0650416503658642e-11 0.0
9.620478790584836e-12 0.0
8.687861003473106e-12 0.0
7.842851494629146e-12 0.0
7.0790778265764904e-12 0.0
6.3890063407894295e-12 0.0
5.764091370678404e-12 0.0
5.205560389899377e-12 0.0
4.690414659544198e-12 0.0
4.229985729857412e-12 0.0
3.813305417027055e-12 0.0
3.4376969891754677e-12 0.0
3.0983915936792785e-12 0.0
2.7917433151735643e-12 0.0
2.515490016754843e-12 0.0
2.266256027452906e-12 0.0
2.041060096192333e-12 0.0
1.8381048942758088e-12 0.0
1.6544209121745794e-12 0.0
1.4894292367738346e-12 0.0
1.3411659914394323e-12 0.0
1.2069788650597325e-12 0.0
1.0860937427086802e-12 0.0
9.770093552651214e-13 0.0
8.787300664366235e-13 0.0
7.904056025281345e-13 0.0
7.107560010674597e-13 0.0
6.390993678761963e-13 0.0
5.745998722787275e-13 0.0
5.164191081160423e-13 0.0
4.638950335030097e-13 0.0
4.169184949879826e-13 0.0
3.7458179222173543e-13 0.0
3.3649228722846355e-13 0.0
3.02202027397371e-13 0.0
2.7136755086311075e-13 0.0
2.436500137508354e-13 0.0
2.1872688987113798e-13 0.0
1.9633934116492583e-13 0.0
1.761879581027621e-13 0.0
1.5810662178576483e-13 0.0
1.4185875491045504e-13 0.0
1.272658343554128e-13 0.0
1.141689272415972e-13 0.0
1.0240565583036193e-13 0.0
9.183826285256776e-14 0.0
8.234861391614477e-14 0.0
7.381087921050454e-14 0.0
6.616071164247976e-14 0.0
5.93070340024476e-14 0.0
5.315181291327803e-14 0.0
4.7622980291170456e-14 0.0
4.266372585182493e-14 0.0
3.821128818321552e-14 0.0
3.421768358453124e-14 0.0
3.0650201545788036e-14 0.0
2.745607315613774e-14 0.0
2.459148943308121e-14 0.0
2.2009843875184697e-14 0.0
1.9699077395136924e-14 0.0
1.7633371123490822e-14 0.0
1.5773247652514333e-14 0.0
1.4109315530712043e-14 0.0
1.2625066634333008e-14 0.0
1.1288853841147586e-14 0.0
1.0098113756924176e-14 0.0
9.031244679182837e-15 0.0
8.07593742484725e-15 0.0
7.224225124183406e-15 0.0
6.459735081511974e-15 0.0
5.775544735351738e-15 0.0
5.163227771305188e-15 0.0
4.6160458295433526e-15 0.0
4.126219405928494e-15 0.0
3.6878581908155965e-15 0.0
3.2954768580782613e-15 0.0
2.9440849632232768e-15 0.0
2.6305882629466534e-15 0.0
2.350258403217725e-15 0.0
2.099703823987392e-15 0.0
1.8754603231191807e-15 0.0
1.675017955013517e-15 0.0
1.4961300668011309e-15 0.0
1.337231610132093e-15 0.0
1.194275940666909e-15 0.0
1.067068352821193e-15 0.0
9.531047421407107e-16 0.0
8.509119891921367e-16 0.0
7.601795287907833e-16 0.0
6.796386014066281e-16 0.0
6.0721531063636935e-16 0.0
5.427379833719493e-16 0.0
4.850426086578634e-16 0.0
4.3361768641295564e-16 0.0
3.880629510479497e-16 0.0
3.470770068205922e-16 0.0
3.1059402818172945e-16 0.0
2.7802114117025284e-16 0.0
2.488350220903269e-16 0.0
2.2291420934954986e-16 0.0
1.9985235105020629e-16 0.0
1.7922081838351017e-16 0.0
1.608408842856928e-16 0.0
1.4446717301946597e-16 0.0
1.2985680016601286e-16 0.0
1.1685099532569985e-16 0.0
1.0526443456945763e-16 0.0
9.493436563081798e-17 0.0
8.573028208332585e-17 0.0
7.751667256458785e-17 0.0
7.021711279451419e-17 0.0
6.372923391896433e-17 0.0
5.795598976066303e-17 0.0
5.281996848329216e-17 0.0
4.8253103029936896e-17 0.0
4.419989936526005e-17 0.0
4.05860244349344e-17 0.0
3.7344317408219965e-17 0.0
3.446635349448917e-17 0.0
3.1913156715788606e-17 0.0
2.963059111655125e-17 0.0
2.7586473511848894e-17 0.0
2.5780079249895684e-17 0.0
2.4176337155058566e-17 0.0
2.274176143896841e-17 0.0
2.1458161551946406e-17 0.0
2.0308100016505852e-17 0.0
1.9276855580718835e-17 0.0
1.8364186462640233e-17 0.0
1.7547996305746156e-17 0.0
1.6814687368087434e-17 0.0
1.615917990114687e-17 0.0
1.5569386143525187e-17 0.0
1.5034550516421276e-17 0.0
1.4554532821659576e-17 0.0
1.4117506812942504e-17 0.0
1.3726399019037257e-17 0.0
1.3367328660206241e-17 0.0
1.3035251511226948e-17 0.0
1.2730288174607314e-17 0.0
1.2455190275792294e-17 0.0
1.2211288134542086e-17 0.0
1.199529281170009e-17 0.0
1.1800808217523531e-17 0.0
1.1625295000542139e-17 0.0
1.1471578700909487e-17 0.0
1.1333213150959186e-17 0.0
1.120707747296543e-17 0.0
1.1097401830151911e-17 0.0
1.1005717947015118e-17 0.0
1.0919304690937849e-17 0.0
1.0838883015559592e-17 0.0
1.0765435438076162e-17 0.0
1.0696019483749299e-17 0.0
1.064160796083486e-17 0.0
1.0590689859635579e-17 0.0
1.0538605961874613e-17 0.0
1.0502599038759102e-17 0.0
1.0468799172357768e-17 0.0
1.0444746899080245e-17 0.0
1.0418820543463286e-17 0.0
1.039924677400259e-17 0.0
1.0384119892392625e-17 0.0
1.0380697003688523e-17 0.0
1.0380599723511973e-17 0.0
1.0391703714332652e-17 0.0
1.0404575484393615e-17 0.0
1.0423433821178474e-17 0.0
1.044078243221549e-17 0.0
1.0459879066308377e-17 0.0
1.0473684991635014e-17 0.0
1.049268543660828e-17 0.0
1.050733187573791e-17 0.0
1.0523121744296102e-17 0.0
1.054440252837138e-17 0.0
1.0565917015415431e-17 0.0
1.0591347927385253e-17 0.0
1.0622594665989771e-17 0.0
1.0661069042258973e-17 0.0
1.0699225548081292e-17 0.0
1.074150337999555e-17 0.0
1.0789342900715875e-17 0.0
1.084202445731154e-17 0.0
1.0894682010994492e-17 0.0
1.0948222864783409e-17 0.0
1.1004548222126525e-17 0.0
1.106514623215211e-17 0.0
1.1136351219091319e-17 0.0
1.1217142453955254e-17 0.0
1.1300935460808028e-17 0.0
1.1386096205778748e-17 0.0
1.1475481031620491e-17 0.0
1.1563339236064236e-17 0.0
1.1642657049246055e-17 0.0
1.1711990645806031e-17 0.0
1.1775905876075986e-17 0.0
1.1836514638593188e-17 0.0
1.1885127591319783e-17 0.0
1.1926642000779626e-17 0.0
1.1964669722502658e-17 0.0
1.1999747835501243e-17 0.0
1.2031737844405273e-17 0.0
1.20665821865319e-17 0.0
1.210410440232836e-17 0.0
1.214449107924387e-17 0.0
1.2187779516558208e-17 0.0
1.2237474526584767e-17 0.0
1.228218859862587e-17 0.0
1.2325825584732017e-17 0.0
1.236477035575429e-17 0.0
1.2406348864063283e-17 0.0
1.2455193859310079e-17 0.0
1.2502255881009227e-17 0.0
1.2554535918031771e-17 0.0
1.2604281519265401e-17 0.0
1.2656806293755171e-17 0.0
1.2711798425002544e-17 0.0
1.2769525464824891e-17 0.0
1.2829598682904679e-17 0.0
1.2892779147247868e-17 0.0
1.296322739516544e-17 0.0
1.3040566044358106e-17 0.0
1.3121650898039105e-17 0.0
1.3201156346131825e-17 0.0
1.32877920069918e-17 0.0
1.3370709936463185e-17 0.0
1.3458041936047257e-17 0.0
1.3541562125799925e-17 0.0
1.3621304224343835e-17 0.0
1.3694909279708643e-17 0.0
1.37631817401183e-17 0.0
1.382840308517521e-17 0.0
1.3893613938632422e-17 0.0
1.3954918391135156e-17 0.0
1.4012301898005594e-17 0.0
1.4066259542447207e-17 0.0
1.411461005120835e-17 0.0
1.416472221205246e-17 0.0
1.4247725981527193e-17 0.0
1.4287456117101903e-17 0.0
1.4325407545500096e-17 0.0
1.4355514547731696e-17 0.0
1.4385303034887512e-17 0.0
1.441031739276604e-17 0.0
1.4437889726893558e-17 0.0
1.4468097162855068e-17 0.0
1.4479545881409856e-17 0.0
1.4473688004514284e-17 0.0
1.4460336050778096e-17 0.0
1.443232021303644e-17 0.0
1.4410685145100335e-17 0.0
1.4369781951076263e-17 0.0
1.4348875564096395e-17 0.0
1.43760198601418e-17 0.0
1.4468228720523475e-17 0.0
1.4593816244293254e-17 0.0
1.4743893836323833e-17 0.0
1.4931662240498116e-17 0.0
1.509395777943886e-17 0.0
1.5156622758039102e-17 0.0
1.524842066814766e-17 0.0
1.5338380213396528e-17 0.0
1.534181632276078e-17 0.0
1.5464813012521367e-17 0.0
1.589123981903769e-17 0.0
1.6004315576516566e-17 0.0
1.577179895272771e-17 0.0
1.5278647707300257e-17 0.0
1.571393020459808e-17 0.0
1.6315564574158918e-17 0.0
1.7873789677078907e-17 0.0
1.829810660101189e-17 0.0
1.79515631550129e-17 0.0
1.688063171601011e-17 0.0
1.763438361373226e-17 0.0
1.9831078581677257e-17 0.0
2.0710262537556645e-17 0.0
2.4567830011976705e-17 0.0
2.3638921604792005e-17 0.0
2.4168954637340967e-17 0.0
2.581729047625247e-17 0.0
2.4045354988554687e-17 0.0
2.90355831777341e-17 0.0
2.3493555144196564e-17 0.0
2.292333210535468e-17 0.0
3.82116171689732e-17 0.0
3.5290317916533633e-17 0.0
3.4059694684985313e-17 0.0
3.8349269240616016e-17 0.0
2.982608429405048e-17 0.0
4.1645875578872085e-17 0.0
4.143875801319144e-17 0.0
4.429644428940688e-17 0.0
4.891726597667058e-17 0.0
3.7929599077277496e-17 0.0
5.5342278521898175e-17 0.0
5.1364423802137243e-17 0.0
5.494179484341115e-17 0.0
3.5227754468945536e-17 0.0
6.388749039752297e-17 0.0
4.5774765310311325e-17 0.0
4.1190786903178565e-17 0.0
5.1960087221275764e-17 0.0
5.2866841718074684e-17 0.0
3.647638696525679e-17 0.0
3.7924112420285317e-17 0.0
3.036210616926653e-17 0.0
2.8646724026552846e-17 0.0
2.3442198247908258e-17 0.0
2.239848292890597e-17 0.0
3.6289987047970513e-17 0.0
1.4959381780543324e-17 0.0
2.458363340799718e-17 0.0
1.9197779732074603e-17 0.0
-1.1573222068987655e-18 0.0
1.1621374854259852e-17 0.0
-5.083089266932725e-19 0.0
0.0 0.009234165287256714
0.0 0.02210978593044937
0.0 0.040062852071541394
0.0 0.06509563926325174
-2.6223965256137166e-17 0.1
-2.994673056631269e-17 0.1
2.6447840640163328e-17 0.1
-9.90797058647698e-17 0.1
0.0 0.09234095951662456
0.0 0.0852677944370336
0.0 0.07873568783499589
0.0 0.07270325358170376
0.0 0.06713226878993354
0.0 0.061987433310911645
0.0 0.05723615233794642
0.0 0.052848316929515575
0.0 0.048796128449943174
0.0 0.04505391065784639
0.0 0.041597952827127416
0.0 0.038406357242570154
0.0 0.03545890171822029
0.0 0.03273691087332505
0.0 0.03022313773602653
0.0 0.027901654838202835
0.0 0.025757753001960603
0.0 0.023777848352114356
0.0 0.021949395807803133
0.0 0.02026081025589438
0.0 0.01870139222365229
0.0 0.01726126159503446
0.0 0.015931293336680405
0.0 0.014703060372939995
0.0 0.013568780782904364
0.0 0.012521267482860952
0.0 0.01155388341352354
0.0 0.010660499143843073
0.0 0.009835453922831219
0.0 0.00907352032963773
0.0 0.008369870608788714
0.0 0.007720046303381318
0.0 0.007119930012359925
0.0 0.006565719473503332
0.0 0.006053903138567299
0.0 0.005581237991563717
0.0 0.005144729226039171
0.0 0.004741611057488171
0.0 0.004369329279130285
0.0 0.0040255250443428404
0.0 0.0037080200117241605
0.0 0.0034148024235078284
0.0 0.0031440144220471413
0.0 0.002893940270275217
0.0 0.0026629954720623775
0.0 0.0024497167594530636
0.0 0.0022527532953117617
0.0 0.002070860506492029
0.0 0.001902897649136035
0.0 0.0017478359107342817
0.0 0.0016047792419224638
0.0 0.001473020396149221
0.0 0.0013518931518830034
0.0 0.001240836842198006
0.0 0.0011393897387506078
0.0 0.0010468288046716068
0.0 0.000962368681187999
0.0 0.0008853870377259265
0.0 0.0008154055718447673
0.0 0.0007519719735127323
0.0 0.000694685272811993
0.0 0.0006432474303375804
0.0 0.0005972472182638353
0.0 0.0005562553096893984
0.0 0.0005201230882528916
0.0 0.0004882111569791095
0.0 0.0004606221676271988
0.0 0.0004371087387372553
0.0 0.00041738363177367527
0.0 0.00040128457577528315
0.0 0.0003882639142530647
0.0 0.0003783090545069428
0.0 0.0003709692774212663
0.0 0.00036584150617720496
0.0 0.0003624930466865666
0.0 0.00036045553118238603
0.0 0.0003592308615923031
0.0 0.0003584782454524126
0.0 0.0003578860295372211
0.0 0.0003569759344950162
0.0 0.00035595754631548065
0.0 0.0003546168301294414
0.0 0.0003529467934546512
3.1357269815299495e-17 0.00492724513266183
8.835747903099931e-18 0.002773874597389736
9.819763698435832e-10 0.0015359343557444771
1.5245054023039936e-06 0.0009061123948464024
4.4991264723865236e-15 0.0014042041053110225
1.3133054923395212e-17 0.0022597849426047156
1.365833678285932e-05 0.0005142377495586846
1.1490854159587594e-17 0.001286773473408844
2.1874193623025813e-08 0.0007827900525785101
2.4536685859918004e-11 0.0007701206824700296
1.7669676849711272e-14 0.0007097590365151184
1.669456593818363e-17 0.0006767768962500127
-2.17532258231875e-17 0.014973736461409768
1.3617455035242773e-17 0.0006657294860763379
2.9995940761724705e-06 0.0004446316316393187
3.294019837052977e-07 0.00043924896105599395
1.7745508382159562e-17 0.0011704180815624448
2.1077473556643065e-05 0.0003360004556669602
1.9631372088657405e-08 0.0003917676832318064
5.246089271946651e-10 0.00042324470382567073
1.1104048480835611e-11 0.0004004930556300142
2.068503855963285e-13 0.00037727737012984916
3.609976157511735e-15 0.0003779922736692859
1.534864401083742e-17 0.000641499004390109
7.833715544205432e-17 0.00035247014978888417
1.1088713625282266e-17 0.0003911916516413833
-8.126646304267e-18 0.04847397115433196
4.92471357269677e-06 0.0002554187505626247
3.004720056362644e-06 0.0002412071335329096
1.190612822170457e-17 0.0003340075302638666
1.3954281928224575e-17 0.0003955732173969905
2.4459704509952002e-17 0.007989497114757224
9.308780420630905e-19 0.003711834662427563
1.915593223091828e-06 0.0002217401691534244
7.930042162433078e-07 0.00023133205015867937
2.3107494073416707e-07 0.00022205286877067889
5.778664718555254e-08 0.00020087130622804383
1.2261359908927082e-08 0.00019930963813535565
1.7575509534538266e-09 0.00022296042645967524
2.3645044561333727e-10 0.00021839894674389866
3.503922123316495e-11 0.00020043056804301763