# vtk DataFile Version 3.0
Some data
ASCII
DATASET UNSTRUCTURED_GRID
POINTS 7930 float
0.0 0.0 0.0
0.0 10.0 0.0
10.0 10.0 0.0
10.0 0.0 0.0
0.5 0.0 0.0
0.0009999999999981016 0.0 0.0
0.001999999999996203 0.0 0.0
0.002999999999994305 0.0 0.0
0.003999999999992409 0.0 0.0
0.004999999999990531 0.0 0.0
0.005999999999988653 0.0 0.0
0.006999999999986775 0.0 0.0
0.007999999999984898 0.0 0.0
0.008999999999983018 0.0 0.0
0.009999999999981142 0.0 0.0
0.01099999999997926 0.0 0.0
0.01199999999997736 0.0 0.0
0.0129999999999754 0.0 0.0
0.01399999999997343 0.0 0.0
0.01499999999997147 0.0 0.0
0.01599999999996944 0.0 0.0
0.0169999999999673 0.0 0.0
0.01799999999996516 0.0 0.0
0.01899999999996302 0.0 0.0
0.01999999999996084 0.0 0.0
0.02099999999995862 0.0 0.0
0.02199999999995639 0.0 0.0
0.02299999999995417 0.0 0.0
0.02399999999995195 0.0 0.0
0.02499999999994972 0.0 0.0
0.0259999999999475 0.0 0.0
0.02699999999994527 0.0 0.0
0.02799999999994315 0.0 0.0
0.0289999999999411 0.0 0.0
0.02999999999993905 0.0 0.0
0.030999999999937 0.0 0.0
0.03199999999993521 0.0 0.0
0.0329999999999335 0.0 0.0
0.0339999999999318 0.0 0.0
0.03499999999993009 0.0 0.0
0.03599999999992853 0.0 0.0
0.036999999999927 0.0 0.0
0.03799999999992547 0.0 0.0
0.03899999999992394 0.0 0.0
0.03999999999992241 0.0 0.0
0.04099999999992088 0.0 0.0
0.04199999999991934 0.0 0.0
0.04299999999991782 0.0 0.0
0.04399999999991629 0.0 0.0
0.04499999999991475 0.0 0.0
0.04599999999991322 0.0 0.0
0.0469999999999117 0.0 0.0
0.04799999999991016 0.0 0.0
0.04899999999990863 0.0 0.0
0.0499999999999071 0.0 0.0
0.05099999999990557 0.0 0.0
0.05199999999990404 0.0 0.0
0.05299999999990251 0.0 0.0
0.05399999999990097 0.0 0.0
0.05499999999989943 0.0 0.0
0.05599999999989791 0.0 0.0
0.05699999999989638 0.0 0.0
0.05799999999989484 0.0 0.0
0.05899999999989317 0.0 0.0
0.05999999999989129 0.0 0.0
0.06099999999988941 0.0 0.0
0.06199999999988753 0.0 0.0
0.06299999999988531 0.0 0.0
0.06399999999988273 0.0 0.0
0.06499999999988015 0.0 0.0
0.06599999999987759 0.0 0.0
0.0669999999998748 0.0 0.0
0.06799999999987189 0.0 0.0
0.06899999999986897 0.0 0.0
0.06999999999986604 0.0 0.0
0.07099999999986313 0.0 0.0
0.0719999999998602 0.0 0.0
0.07299999999985729 0.0 0.0
0.07399999999985438 0.0 0.0
0.07499999999985145 0.0 0.0
0.07599999999984854 0.0 0.0
0.07699999999984562 0.0 0.0
0.0779999999998427 0.0 0.0
0.07899999999983978 0.0 0.0
0.07999999999983685 0.0 0.0
0.08099999999983394 0.0 0.0
0.08199999999983103 0.0 0.0
0.0829999999998281 0.0 0.0
0.08399999999982519 0.0 0.0
0.08499999999982226 0.0 0.0
0.08599999999981935 0.0 0.0
0.08699999999981643 0.0 0.0
0.0879999999998135 0.0 0.0
0.08899999999981059 0.0 0.0
0.08999999999980766 0.0 0.0
0.09099999999980475 0.0 0.0
0.09199999999980184 0.0 0.0
0.09299999999979891 0.0 0.0
0.093999999999796 0.0 0.0
0.09499999999979307 0.0 0.0
0.09599999999979016 0.0 0.0
0.09699999999978724 0.0 0.0
0.09799999999978432 0.0 0.0
0.0989999999997814 0.0 0.0
0.09999999999977847 0.0 0.0
0.1009999999997756 0.0 0.0
0.1019999999997726 0.0 0.0
0.1029999999997697 0.0 0.0
0.1039999999997668 0.0 0.0
0.1049999999997639 0.0 0.0
0.105999999999761 0.0 0.0
0.106999999999758 0.0 0.0
0.1079999999997551 0.0 0.0
0.1089999999997522 0.0 0.0
0.1099999999997493 0.0 0.0
0.1109999999997464 0.0 0.0
0.1119999999997434 0.0 0.0
0.1129999999997405 0.0 0.0
0.1139999999997376 0.0 0.0
0.1149999999997347 0.0 0.0
0.1159999999997318 0.0 0.0
0.1169999999997288 0.0 0.0
0.1179999999997259 0.0 0.0
0.118999999999723 0.0 0.0
0.1199999999997201 0.0 0.0
0.1209999999997172 0.0 0.0
0.1219999999997143 0.0 0.0
0.1229999999997113 0.0 0.0
0.1239999999997084 0.0 0.0
0.1249999999997055 0.0 0.0
0.1259999999997026 0.0 0.0
0.1269999999996997 0.0 0.0
0.1279999999996967 0.0 0.0
0.1289999999996938 0.0 0.0
0.1299999999996909 0.0 0.0
0.130999999999688 0.0 0.0
0.1319999999996851 0.0 0.0
0.1329999999996822 0.0 0.0
0.1339999999996792 0.0 0.0
0.1349999999996764 0.0 0.0
0.1359999999996734 0.0 0.0
0.1369999999996705 0.0 0.0
0.1379999999996676 0.0 0.0
0.1389999999996647 0.0 0.0
0.1399999999996618 0.0 0.0
0.1409999999996588 0.0 0.0
0.1419999999996559 0.0 0.0
0.142999999999653 0.0 0.0
0.1439999999996501 0.0 0.0
0.1449999999996472 0.0 0.0
0.1459999999996442 0.0 0.0
0.1469999999996414 0.0 0.0
0.1479999999996384 0.0 0.0
0.1489999999996355 0.0 0.0
0.1499999999996326 0.0 0.0
0.1509999999996297 0.0 0.0
0.1519999999996268 0.0 0.0
0.1529999999996239 0.0 0.0
0.1539999999996209 0.0 0.0
0.154999999999618 0.0 0.0
0.1559999999996151 0.0 0.0
0.1569999999996122 0.0 0.0
0.1579999999996093 0.0 0.0
0.1589999999996064 0.0 0.0
0.1599999999996035 0.0 0.0
0.1609999999996005 0.0 0.0
0.1619999999995976 0.0 0.0
0.1629999999995947 0.0 0.0
0.1639999999995918 0.0 0.0
0.1649999999995889 0.0 0.0
0.165999999999586 0.0 0.0
0.1669999999995831 0.0 0.0
0.1679999999995801 0.0 0.0
0.1689999999995772 0.0 0.0
0.1699999999995743 0.0 0.0
0.1709999999995714 0.0 0.0
0.1719999999995685 0.0 0.0
0.1729999999995655 0.0 0.0
0.1739999999995626 0.0 0.0
0.1749999999995597 0.0 0.0
0.1759999999995568 0.0 0.0
0.1769999999995539 0.0 0.0
0.177999999999551 0.0 0.0
0.178999999999548 0.0 0.0
0.1799999999995451 0.0 0.0
0.1809999999995422 0.0 0.0
0.1819999999995393 0.0 0.0
0.1829999999995364 0.0 0.0
0.1839999999995335 0.0 0.0
0.1849999999995305 0.0 0.0
0.1859999999995277 0.0 0.0
0.1869999999995247 0.0 0.0
0.1879999999995218 0.0 0.0
0.1889999999995189 0.0 0.0
0.189999999999516 0.0 0.0
0.1909999999995131 0.0 0.0
0.1919999999995101 0.0 0.0
0.1929999999995072 0.0 0.0
0.1939999999995043 0.0 0.0
0.1949999999995014 0.0 0.0
0.1959999999994985 0.0 0.0
0.1969999999994956 0.0 0.0
0.1979999999994927 0.0 0.0
0.1989999999994897 0.0 0.0
0.1999999999994868 0.0 0.0
0.2009999999994839 0.0 0.0
0.201999999999481 0.0 0.0
0.2029999999994781 0.0 0.0
0.2039999999994752 0.0 0.0
0.2049999999994722 0.0 0.0
0.2059999999994693 0.0 0.0
0.2069999999994664 0.0 0.0
0.2079999999994635 0.0 0.0
0.2089999999994606 0.0 0.0
0.2099999999994577 0.0 0.0
0.2109999999994548 0.0 0.0
0.2119999999994518 0.0 0.0
0.2129999999994489 0.0 0.0
0.213999999999446 0.0 0.0
0.2149999999994431 0.0 0.0
0.2159999999994402 0.0 0.0
0.2169999999994373 0.0 0.0
0.2179999999994343 0.0 0.0
0.2189999999994314 0.0 0.0
0.2199999999994285 0.0 0.0
0.2209999999994256 0.0 0.0
0.2219999999994227 0.0 0.0
0.2229999999994198 0.0 0.0
0.2239999999994168 0.0 0.0
0.2249999999994139 0.0 0.0
0.225999999999411 0.0 0.0
0.2269999999994081 0.0 0.0
0.2279999999994052 0.0 0.0
0.2289999999994023 0.0 0.0
0.2299999999993994 0.0 0.0
0.2309999999993964 0.0 0.0
0.2319999999993935 0.0 0.0
0.2329999999993906 0.0 0.0
0.2339999999993877 0.0 0.0
0.2349999999993848 0.0 0.0
0.2359999999993818 0.0 0.0
0.236999999999379 0.0 0.0
0.237999999999376 0.0 0.0
0.2389999999993731 0.0 0.0
0.2399999999993702 0.0 0.0
0.2409999999993673 0.0 0.0
0.2419999999993644 0.0 0.0
0.2429999999993615 0.0 0.0
0.2439999999993585 0.0 0.0
0.2449999999993556 0.0 0.0
0.2459999999993527 0.0 0.0
0.246999999999351 0.0 0.0
0.2479999999993495 0.0 0.0
0.248999999999348 0.0 0.0
0.2499999999993464 0.0 0.0
0.2509999999993477 0.0 0.0
0.2519999999993489 0.0 0.0
0.2529999999993502 0.0 0.0
0.2539999999993516 0.0 0.0
0.2549999999993542 0.0 0.0
0.2559999999993569 0.0 0.0
0.2569999999993595 0.0 0.0
0.2579999999993621 0.0 0.0
0.2589999999993647 0.0 0.0
0.2599999999993673 0.0 0.0
0.26099999999937 0.0 0.0
0.2619999999993726 0.0 0.0
0.2629999999993753 0.0 0.0
0.2639999999993779 0.0 0.0
0.2649999999993806 0.0 0.0
0.2659999999993832 0.0 0.0
0.2669999999993858 0.0 0.0
0.2679999999993884 0.0 0.0
0.2689999999993911 0.0 0.0
0.2699999999993937 0.0 0.0
0.2709999999993963 0.0 0.0
0.271999999999399 0.0 0.0
0.2729999999994017 0.0 0.0
0.2739999999994043 0.0 0.0
0.2749999999994069 0.0 0.0
0.2759999999994096 0.0 0.0
0.2769999999994122 0.0 0.0
0.2779999999994148 0.0 0.0
0.2789999999994174 0.0 0.0
0.2799999999994201 0.0 0.0
0.2809999999994228 0.0 0.0
0.2819999999994254 0.0 0.0
0.282999999999428 0.0 0.0
0.2839999999994306 0.0 0.0
0.2849999999994333 0.0 0.0
0.2859999999994359 0.0 0.0
0.2869999999994385 0.0 0.0
0.2879999999994411 0.0 0.0
0.2889999999994439 0.0 0.0
0.2899999999994465 0.0 0.0
0.2909999999994491 0.0 0.0
0.2919999999994517 0.0 0.0
0.2929999999994544 0.0 0.0
0.293999999999457 0.0 0.0
0.2949999999994596 0.0 0.0
0.2959999999994622 0.0 0.0
0.2969999999994649 0.0 0.0
0.2979999999994676 0.0 0.0
0.2989999999994702 0.0 0.0
0.2999999999994728 0.0 0.0
0.3009999999994754 0.0 0.0
0.3019999999994781 0.0 0.0
0.3029999999994807 0.0 0.0
0.3039999999994834 0.0 0.0
0.304999999999486 0.0 0.0
0.3059999999994886 0.0 0.0
0.3069999999994913 0.0 0.0
0.3079999999994939 0.0 0.0
0.3089999999994965 0.0 0.0
0.3099999999994992 0.0 0.0
0.3109999999995018 0.0 0.0
0.3119999999995045 0.0 0.0
0.3129999999995071 0.0 0.0
0.3139999999995097 0.0 0.0
0.3149999999995123 0.0 0.0
0.315999999999515 0.0 0.0
0.3169999999995176 0.0 0.0
0.3179999999995203 0.0 0.0
0.3189999999995229 0.0 0.0
0.3199999999995256 0.0 0.0
0.3209999999995282 0.0 0.0
0.3219999999995308 0.0 0.0
0.3229999999995334 0.0 0.0
0.323999999999536 0.0 0.0
0.3249999999995387 0.0 0.0
0.3259999999995414 0.0 0.0
0.326999999999544 0.0 0.0
0.3279999999995466 0.0 0.0
0.3289999999995493 0.0 0.0
0.3299999999995519 0.0 0.0
0.3309999999995545 0.0 0.0
0.3319999999995571 0.0 0.0
0.3329999999995598 0.0 0.0
0.3339999999995625 0.0 0.0
0.3349999999995651 0.0 0.0
0.3359999999995677 0.0 0.0
0.3369999999995703 0.0 0.0
0.337999999999573 0.0 0.0
0.3389999999995756 0.0 0.0
0.3399999999995783 0.0 0.0
0.3409999999995809 0.0 0.0
0.3419999999995835 0.0 0.0
0.3429999999995862 0.0 0.0
0.3439999999995888 0.0 0.0
0.3449999999995914 0.0 0.0
0.345999999999594 0.0 0.0
0.3469999999995967 0.0 0.0
0.3479999999995994 0.0 0.0
0.348999999999602 0.0 0.0
0.3499999999996046 0.0 0.0
0.3509999999996072 0.0 0.0
0.3519999999996099 0.0 0.0
0.3529999999996125 0.0 0.0
0.3539999999996151 0.0 0.0
0.3549999999996178 0.0 0.0
0.3559999999996205 0.0 0.0
0.3569999999996231 0.0 0.0
0.3579999999996257 0.0 0.0
0.3589999999996283 0.0 0.0
0.359999999999631 0.0 0.0
0.3609999999996336 0.0 0.0
0.3619999999996362 0.0 0.0
[...]
POINT_DATA 7930
SCALARS Disp float 2
LOOKUP_TABLE default
0.0 0.0015283069004552443
0.0 0.1
0.0 0.1
0.0 0.0
5.648037633048892e-06 0.0
-6.860307327679475e-06 0.0015282633878310487
-1.3717619697133456e-05 0.0015278259370224581
-2.0505247461243884e-05 0.0015268141590230099
-2.7352082318647506e-05 0.0015259057076321412
-3.433643707921211e-05 0.00152507204844839
-4.125217429370374e-05 0.0015230584087986424
-4.7698957040530934e-05 0.0015203217874876945
-5.4266809376814395e-05 0.0015187248339651356
-6.14855434734481e-05 0.0015174008702779106
-6.878524785504095e-05 0.0015144584867148655
-7.533239207492193e-05 0.0015095907754488316
-8.153475599690392e-05 0.0015065357785271432
-8.877359746432241e-05 0.0015047003244791106
-9.612722422086526e-05 0.0015006276946573456
-0.00010266770468675789 0.0014943986122839192
-0.00010891237175798434 0.0014898018419360459
-0.00011600848607574582 0.0014867773724241253
-0.0001236287584604005 0.0014813900279505904
-0.0001300299518641213 0.0014735700118154215
-0.00013589964894700657 0.0014676039619051934
-0.0001428631446817983 0.0014641507922548455
-0.00015063694346030464 0.0014578250891092827
-0.00015723664387130813 0.001448343559771174
-0.0001630248029037791 0.0014409343124736115
-0.00017006334876145047 0.0014365335425016773
-0.00017797145625812397 0.0014290023271282281
-0.00018458840783170823 0.0014177958849769048
-0.00019033741856494752 0.0014086996932547564
-0.00019727462297012527 0.001402802328246881
-0.00020534040081593294 0.0013942450318599395
-0.0002122369632801105 0.0013815615337928152
-0.00021822236699140538 0.0013706291549203968
-0.00022523555352992766 0.0013631795108147529
-0.00023292364851024163 0.0013532678989413652
-0.00023998353455891296 0.0013384007138351423
-0.0002456587300184852 0.0013251926212181956
-0.0002523202719213009 0.0013161730177420163
-0.000260368222980922 0.0013048827783617677
-0.0002672661279754454 0.0012882334762145463
-0.0002728560623426788 0.001273094929519279
-0.00027951296078015513 0.0012625361331878061
-0.0002872233943688972 0.001249764493726199
-0.00029455162004035586 0.0012310627485049197
-0.00030020887496228594 0.001213237122295267
-0.0003065964289867382 0.0012002482614306873
-0.00031469094308339513 0.0011854749623730467
-0.0003218642463468536 0.0011646254132100288
-0.00032761431832718964 0.001143952385117759
-0.00033380630120760673 0.0011283298303276534
-0.00034151209277052887 0.0011114354435675354
-0.00034910800348347316 0.0010879923505251804
-0.00035479138446329613 0.0010640361403279743
-0.0003607512374561937 0.0010455308137080283
-0.000368809930695047 0.0010255484878117372
-0.0003766582327553792 0.0009982285444566368
-0.0003823809678336053 0.000969902305164959
-0.00038822258926879486 0.0009468295451888183
-0.000396050823935561 0.0009228419253995538
-0.0004039912728199203 0.0008913282442718505
-0.0004096623326309138 0.0008578921742083259
-0.0004155431318424197 0.0008289689488262115
-0.00042292964550534053 0.0007993179721919665
-0.0004309875363025305 0.0007611148485845128
-0.0004368946960098981 0.0007193820208659889
-0.0004428570578457779 0.0006812572235432885
-0.00045019028824435904 0.0006414705229063622
-0.00045831038134605377 0.0005909044391085517
-0.00046380884572304164 0.0005341321413758869
-0.0004698694987434711 0.0004763665888740104
-0.0004757682415942753 0.0004120887968077327
-0.0004826601360684441 0.00032387190835204396
-0.0004791684975738832 0.00020839180955566636
-0.0004496399522115754 0.0
-0.0004115909732576593 0.0
-0.00038076501698353294 0.0
-0.00036064732286518887 0.0
-0.0003441287543165207 0.0
-0.00033043314457413504 0.0
-0.00031811472019615454 0.0
-0.0003072870522248607 0.0
-0.0002974754096577482 0.0
-0.0002884700541777545 0.0
-0.00028020464195885396 0.0
-0.0002726229525116485 0.0
-0.0002655022260335538 0.0
-0.0002587800750533348 0.0
-0.00025248713651284695 0.0
-0.0002465368907587178 0.0
-0.00024091636331142642 0.0
-0.00023555857682617683 0.0
-0.00023045255356728342 0.0
-0.00022558140785109814 0.0
-0.0002209141410873787 0.0
-0.0002164411859996637 0.0
-0.00021216567690570358 0.0
-0.0002080529548269773 0.0
-0.00020406958433836838 0.0
-0.0002002348366966318 0.0
-0.00019651787744382452 0.0
-0.00019294252482059625 0.0
-0.00018948362379946342 0.0
-0.0001861499246295003 0.0
-0.00018292852566759724 0.0
-0.000179814377150179 0.0
-0.00017679867228934565 0.0
-0.00017385439929853156 0.0
-0.00017101326713429374 0.0
-0.00016828300133488704 0.0
-0.00016557997187735356 0.0
-0.00016297377239662402 0.0
-0.00016044224530875788 0.0
-0.0001579664843395124 0.0
-0.0001555567596264045 0.0
-0.00015320769726014577 0.0
-0.00015090725142703814 0.0
-0.00014866323494371433 0.0
-0.0001464753445780962 0.0
-0.00014433894299132656 0.0
-0.00014226433495571339 0.0
-0.0001402031888910535 0.0
-0.00013820767904704348 0.0
-0.00013624871591032852 0.0
-0.00013433992537540036 0.0
-0.0001324601989523316 0.0
-0.00013062655192769984 0.0
-0.00012883019476257667 0.0
-0.00012707064404394403 0.0
-0.00012534604974456223 0.0
-0.0001236571238022366 0.0
-0.00012200151367439364 0.0
-0.00012037680497539076 0.0
-0.00011878134353193025 0.0
-0.00011721918872474085 0.0
-0.00011569031602720325 0.0
-0.00011417384591060397 0.0
-0.00011269106381599763 0.0
-0.00011122938084050608 0.0
-0.00010979249619907081 0.0
-0.00010837731620398254 0.0
-0.00010698447567154438 0.0
-0.00010561509283382796 0.0
-0.0001042681164700938 0.0
-0.00010294285471149698 0.0
-0.00010163651783409808 0.0
-0.00010035234613792238 0.0
-9.90897095552276e-05 0.0
-9.784677887867266e-05 0.0
-9.662500115813953e-05 0.0
-9.542280997094712e-05 0.0
-9.423883483662774e-05 0.0
-9.307378355480788e-05 0.0
-9.192734281438673e-05 0.0
-9.079744718313636e-05 0.0
-8.968386533825169e-05 0.0
-8.858813964138072e-05 0.0
-8.751075940076362e-05 0.0
-8.644207536750597e-05 0.0
-8.539459252033803e-05 0.0
-8.43591717147222e-05 0.0
-8.333741428337354e-05 0.0
-8.233143476265503e-05 0.0
-8.13305334726273e-05 0.0
-8.034828219888389e-05 0.0
-7.937727932539697e-05 0.0
-7.841739394549308e-05 0.0
-7.746964807208898e-05 0.0
-7.6533082451844e-05 0.0
-7.560728741679055e-05 0.0
-7.469184612447067e-05 0.0
-7.378737544053095e-05 0.0
-7.28932046783472e-05 0.0
-7.200844390367425e-05 0.0
-7.113523658242539e-05 0.0
-7.027335054191667e-05 0.0
-6.942123082993232e-05 0.0
-6.857900722569745e-05 0.0
-6.774762841605994e-05 0.0
-6.692716391275341e-05 0.0
-6.61154671184182e-05 0.0
-6.531389316753679e-05 0.0
-6.452283875106112e-05 0.0
-6.37410764598649e-05 0.0
-6.296871827250848e-05 0.0
-6.220595823602647e-05 0.0
-6.145335372407791e-05 0.0
-6.070930837524233e-05 0.0
-5.997454675523821e-05 0.0
-5.9248857738367636e-05 0.0
-5.853193911043725e-05 0.0
-5.7824026159407466e-05 0.0
-5.7125197238155305e-05 0.0
-5.643417954134636e-05 0.0
-5.5751436413851395e-05 0.0
-5.50763564692143e-05 0.0
-5.440919906218635e-05 0.0
-5.3750309996325815e-05 0.0
-5.309829042185347e-05 0.0
-5.245289096667571e-05 0.0
-5.1814951227383945e-05 0.0
-5.1182954552450286e-05 0.0
-5.0557371269840233e-05 0.0
-4.9938377058134934e-05 0.0
-4.932537905304976e-05 0.0
-4.871779748110814e-05 0.0
-4.81169042932012e-05 0.0
-4.7519515059556254e-05 0.0
-4.69275587136222e-05 0.0
-4.634089927230655e-05 0.0
-4.5759969966754716e-05 0.0
-4.5183832009916696e-05 0.0
-4.4612774290872256e-05 0.0
-4.4046981214631456e-05 0.0
-4.3485892811847044e-05 0.0
-4.292988085478265e-05 0.0
-4.238068916050556e-05 0.0
-4.183403513456517e-05 0.0
-4.129389108810999e-05 0.0
-4.075945392614289e-05 0.0
-4.022985501244151e-05 0.0
-3.970579728367051e-05 0.0
-3.918742930072915e-05 0.0
-3.8674505905145354e-05 0.0
-3.816690741681943e-05 0.0
-3.766493518294314e-05 0.0
-3.716848741104465e-05 0.0
-3.667736436261147e-05 0.0
-3.6191842840909546e-05 0.0
-3.571144224028155e-05 0.0
-3.523610670379061e-05 0.0
-3.476587890792964e-05 0.0
-3.430028271757097e-05 0.0
-3.3839080970493066e-05 0.0
-3.338254930190725e-05 0.0
-3.2930450009362996e-05 0.0
-3.248207772182027e-05 0.0
-3.20380596585415e-05 0.0
-3.159765357316754e-05 0.0
-3.116113035290507e-05 0.0
-3.072814585014955e-05 0.0
-3.0298457462819247e-05 0.0
-2.9871948162129176e-05 0.0
-2.9448581916007178e-05 0.0
-2.902846895012933e-05 0.0
-2.8611187465870658e-05 0.0
-2.8197035053590006e-05 0.0
-2.7786385386193618e-05 0.0
-2.737839379271164e-05 0.0
-2.69734681254854e-05 0.0
-2.6572062825175508e-05 0.0
-2.617382712702894e-05 0.0
-2.5778919458256968e-05 0.0
-2.5387407956145698e-05 0.0
-2.499921375183567e-05 0.0
-2.4614549962764428e-05 0.0
-2.4233700836927622e-05 0.0
-2.3856335880145582e-05 0.0
-2.348277736690558e-05 0.0
-2.3113022678409552e-05 0.0
-2.2747205205716424e-05 0.0
-2.238530541306549e-05 0.0
-2.202730656239346e-05 0.0
-2.1673087551394805e-05 0.0
-2.1322632843285144e-05 0.0
-2.0976052887886565e-05 0.0
-2.0633069460769504e-05 0.0
-2.0293871960873135e-05 0.0
-1.9958348146353835e-05 0.0
-1.9626291517161374e-05 0.0
-1.9297032505499342e-05 0.0
-1.8971745527395347e-05 0.0
-1.8648883346032106e-05 0.0
-1.832979315470408e-05 0.0
-1.8012727086786418e-05 0.0
-1.7698572821070595e-05 0.0
-1.7387026727811318e-05 0.0
-1.7078051019057216e-05 0.0
-1.6771473483180573e-05 0.0
-1.646707037486803e-05 0.0
-1.616490054392581e-05 0.0
-1.5864876180559474e-05 0.0
-1.5566836665967793e-05 0.0
-1.5270675979025083e-05 0.0
-1.4976481379798336e-05 0.0
-1.4684210980726698e-05 0.0
-1.4393696612039045e-05 0.0
-1.4105071136146996e-05 0.0
-1.3818424630324547e-05 0.0
-1.35337339240404e-05 0.0
-1.32510976991237e-05 0.0
-1.2969561962587866e-05 0.0
-1.2690638829585626e-05 0.0
-1.2413742596445042e-05 0.0
-1.2139013360969886e-05 0.0
-1.1866917286100307e-05 0.0
-1.1596322982992563e-05 0.0
-1.1328205305615858e-05 0.0
-1.1062566129687277e-05 0.0
-1.0799441825168714e-05 0.0
-1.0538705313829678e-05 0.0
-1.0280509896191618e-05 0.0
-1.0024790691482684e-05 0.0
-9.771764645348734e-06 0.0
-9.521315199171159e-06 0.0
-9.273481802021245e-06 0.0
-9.02832365425805e-06 0.0
-8.78583369643396e-06 0.0
-8.54602188669971e-06 0.0
-8.308082860191968e-06 0.0
-8.073009223725035e-06 0.0
-7.840509607858748e-06 0.0
-7.6105347208960406e-06 0.0
-7.383279094014968e-06 0.0
-7.1575324196977566e-06 0.0
-6.9341277664890755e-06 0.0
-6.712941984279633e-06 0.0
-6.493870173151022e-06 0.0
-6.276834425085213e-06 0.0
-6.061924830822815e-06 0.0
-5.848838762741722e-06 0.0
-5.637472960891291e-06 0.0
-5.427833489372749e-06 0.0
-5.2198960871094e-06 0.0
-5.013510106638596e-06 0.0
-4.808619460644542e-06 0.0
-4.605312604455591e-06 0.0
-4.403588073409032e-06 0.0
-4.203223948325168e-06 0.0
-4.004235057803154e-06 0.0
-3.806762148125562e-06 0.0
-3.610714269927435e-06 0.0
-3.4159846682924824e-06 0.0
-3.222719313149852e-06 0.0
-3.0308098574613716e-06 0.0
-2.840407538242968e-06 0.0
-2.651447353453148e-06 0.0
-2.463941295909659e-06 0.0
-2.2779033846613606e-06 0.0
-2.0934015312029435e-06 0.0
-1.9105840513280747e-06 0.0
-1.7294198492547094e-06 0.0
-1.549902547128695e-06 0.0
-1.3720629845612569e-06 0.0
-1.1960209244074054e-06 0.0
-1.0218172883184168e-06 0.0
-8.494876252319429e-07 0.0
-6.790330129619611e-07 0.0
-5.105830740604455e-07 0.0
-3.440574499740966e-07 0.0
-1.7939752222579666e-07 0.0
-1.6870623988481538e-08 0.0
1.4350166920414656e-07 0.0
3.020035816763309e-07 0.0
4.5830936259831945e-07 0.0
6.126236833258852e-07 0.0
7.64853727167589e-07 0.0
9.148301560933244e-07 0.0
1.0628693799879708e-06 0.0
1.2087890015185057e-06 0.0
1.352667197280843e-06 0.0
1.4946330798265626e-06 0.0
1.63444729382046e-06 0.0
1.7721708358294715e-06 0.0
1.9079685345124327e-06 0.0
2.0417454471163494e-06 0.0
2.17358487347315e-06 0.0
2.3035216900376504e-06 0.0
2.4314923065571497e-06 0.0
2.5575672413200696e-06 0.0
2.6817125564839496e-06 0.0
2.8043391891741603e-06 0.0
2.9250130204926112e-06 0.0
3.0438174247280905e-06 0.0
3.160802838688339e-06 0.0
3.2760142570281715e-06 0.0
3.389436896693135e-06 0.0
3.5011225160731538e-06 0.0
3.611014330226685e-06 0.0
3.7191104329792546e-06 0.0
3.825701696722533e-06 0.0
3.930394487741332e-06 0.0
4.033087023975045e-06 0.0
4.1341706498834315e-06 0.0
4.233603965203462e-06 0.0
4.3309917910794535e-06 0.0
4.426484215402965e-06 0.0
4.520207790933722e-06 0.0
4.612108762326531e-06 0.0
4.702059188846532e-06 0.0
4.790226867803945e-06 0.0
4.876286957039959e-06 0.0
4.9601761756457254e-06 0.0
5.042254536877805e-06 0.0
5.122287383385614e-06 0.0
5.20024794337615e-06 0.0
5.2763278661066955e-06 0.0
5.350075120997992e-06 0.0
5.421667262535649e-06 0.0
5.491198912190566e-06 0.0
5.558452382664029e-06 0.0
5.623481227241575e-06 0.0
5.68650031072847e-06 0.0
5.747328790227232e-06 0.0
5.80595005018356e-06 0.0
5.862357519306421e-06 0.0
5.916635403620908e-06 0.0
5.968761222060208e-06 0.0
6.0187584759807135e-06 0.0
6.066609915527551e-06 0.0
6.112419998155608e-06 0.0
6.15616659090292e-06 0.0
6.197946309607531e-06 0.0
6.2378069606004e-06 0.0
6.2756750619704295e-06 0.0
6.3116255455270015e-06 0.0
6.345733090652131e-06 0.0
6.377986007583493e-06 0.0
6.40848875509322e-06 0.0
6.43735843830416e-06 0.0
6.464547070102617e-06 0.0
6.490183902523832e-06 0.0
6.514284772681236e-06 0.0
6.536870055641672e-06 0.0
6.558032114842339e-06 0.0
6.577959757131424e-06 0.0
6.596446730228128e-06 0.0
6.613678349310491e-06 0.0
6.629671581753455e-06 0.0
6.644561267191207e-06 0.0
6.658380413536123e-06 0.0
6.671128069598713e-06 0.0
6.6828683207574536e-06 0.0
6.693668438620515e-06 0.0
6.703542919952782e-06 0.0
6.712490732798662e-06 0.0
6.7206351656383825e-06 0.0
6.727906578121483e-06 0.0
6.734393126325328e-06 0.0
6.7400990595817195e-06 0.0
6.745052848010207e-06 0.0
6.7493580337012855e-06 0.0
6.752881485795546e-06 0.0
6.755684167225656e-06 0.0
6.757775126620012e-06 0.0
6.759198774222587e-06 0.0
6.759954823913003e-06 0.0
6.760079042828957e-06 0.0
6.759458481039613e-06 0.0
6.7581716094064875e-06 0.0
6.756220749972069e-06 0.0
6.753539340564011e-06 0.0
6.750171769359246e-06 0.0
6.74612125408455e-06 0.0
6.741351262208362e-06 0.0
6.735852430804639e-06 0.0
6.729613286827378e-06 0.0
6.722562023168516e-06 0.0
6.714795044693213e-06 0.0
6.706233579099844e-06 0.0
6.696875179001117e-06 0.0
6.6866999856154195e-06 0.0
6.6756623397462735e-06 0.0
6.663794122213347e-06 0.0
6.6511111825685995e-06 0.0
6.637629836786236e-06 0.0
6.623251682476208e-06 0.0
6.607927402011596e-06 0.0
6.591724864807571e-06 0.0
6.574736633967202e-06 0.0
6.5568576147518904e-06 0.0
6.538130820417156e-06 0.0
6.518528690286154e-06 0.0
6.498074197185128e-06 0.0
6.476743721567163e-06 0.0
6.4545577753060125e-06 0.0
6.431575876755764e-06 0.0
6.407725677606681e-06 0.0
6.383059909708447e-06 0.0
6.357580474613327e-06 0.0
6.331353401540921e-06 0.0
6.304387470391677e-06 0.0
6.276699050805067e-06 0.0
6.248287021742777e-06 0.0
6.2191490711758204e-06 0.0
6.18942420540365e-06 0.0
6.159049427579418e-06 0.0
6.12806540380875e-06 0.0
6.096518927808441e-06 0.0
6.064386959453578e-06 0.0
6.031791420703544e-06 0.0
5.998720052231224e-06 0.0
5.965183507897598e-06 0.0
5.931218958500726e-06 0.0
5.896889920414911e-06 0.0
5.862187152009475e-06 0.0
5.827152322493327e-06 0.0
5.791804908977294e-06 0.0
5.7561957009162196e-06 0.0
5.720366734425497e-06 0.0
5.684295988261808e-06 0.0
5.610303596659165e-06 0.0
5.569109202817896e-06 0.0
5.524173530255687e-06 0.0
5.475181251600792e-06 0.0
5.421804161611984e-06 0.0
5.36370573465409e-06 0.0
5.300523125686239e-06 0.0
5.231873248386832e-06 0.0
5.157367738330554e-06 0.0
5.076573955982105e-06 0.0
4.989031527078783e-06 0.0
4.8942139855471205e-06 0.0
4.791476582085445e-06 0.0
4.680074855860935e-06 0.0
4.558984945192136e-06 0.0
4.426908170551807e-06 0.0
4.282084196443372e-06 0.0
4.122513398587152e-06 0.0
3.945194587343659e-06 0.0
3.747449532474215e-06 0.0
3.525830850974135e-06 0.0
3.277096030596244e-06 0.0
2.9989928884215057e-06 0.0
2.691466149275724e-06 0.0
2.3568630096939557e-06 0.0
2.001485920628188e-06 0.0
1.6376087625408937e-06 0.0
1.281470976327332e-06 0.0
9.504442884159984e-07 0.0
6.618308039292524e-07 0.0
4.2802901319561926e-07 0.0
2.5362840634096514e-07 0.0
1.3450308368983875e-07 0.0
6.397800932095253e-08 0.0
2.6320112704494854e-08 0.0
9.07378587140486e-09 0.0
2.4887226049423554e-09 0.0
5.48017412936733e-10 0.0
1.0431472727505288e-10 0.0
1.4396417692216636e-11 0.0
1.0379202777568191e-12 0.0
3.801878015900098e-14 0.0
3.2989007694860337e-15 0.0
-1.833990809187847e-16 0.0
2.7860483509865154e-16 0.0
3.103938354024767e-17 0.0
-3.240599714243044e-17 0.0
4.82314414785584e-19 0.0
-1.462779502762323e-17 0.0
-9.173038838113407e-17 0.0
-2.5724451683124975e-17 0.0
3.2902466790198853e-17 0.0
-3.5838930095819744e-17 0.0
5.652909481920825e-18 0.0
3.718088218768475e-17 0.0
2.2404669598509293e-17 0.0
-1.4551611289688862e-17 0.0
-1.4242786448914472e-16 0.0
-8.292133708189019e-17 0.0
1.3100225868363402e-16 0.0
4.916868435169831e-16 0.0
3.8727108449078253e-16 0.0
1.4872019885931645e-17 0.0
-1.3895082415506886e-17 0.0
-3.561263207631167e-16 0.0
-1.3168637504492843e-16 0.0
4.5916714665798605e-17 0.0
7.040680916071035e-17 0.0
-6.6585228376034e-17 0.0
9.996671202555565e-17 0.0
4.765598918298859e-17 0.0
5.982751234503066e-16 0.0
-9.472680414117542e-16 0.0
1.927205894202596e-17 0.0
1.3957919262347572e-15 0.0
-6.016991504729083e-16 0.0
-4.2555918245438126e-16 0.0
4.4012834478131747e-16 0.0
-6.820419902575496e-16 0.0
0.0 0.009234165287260124
0.0 0.0221097859304575
0.0 0.040062852071481865
0.0 0.06509563926315544
-8.856236682481512e-16 0.1
-1.3858882397841714e-15 0.1
1.601399494101855e-14 0.1
-1.7583976707077174e-14 0.1
0.0 0.09234095951661433
0.0 0.08526779443703078
0.0 0.07873568783498108
0.0 0.07270325358166442
0.0 0.06713226878994336
0.0 0.06198743331092809
0.0 0.0572361523379592
0.0 0.05284831692952298
0.0 0.04879612844994857
0.0 0.045053910657844046
0.0 0.04159795282711719
0.0 0.03840635724257292
0.0 0.03545890171822564
0.0 0.032736910873330076
0.0 0.030223137736033332
0.0 0.027901654838206502
0.0 0.025757753001962782
0.0 0.023777848352117336
0.0 0.021949395807804223
0.0 0.020260810255895257
0.0 0.01870139222365547
0.0 0.0172612615950369
0.0 0.015931293336685973
0.0 0.014703060372954088
0.0 0.01356878078295982
0.0 0.012521267483842505
0.0 0.011553883401910277
0.0 0.01066049923181195
0.0 0.00983545374471592
0.0 0.009073520718064684
0.0 0.008369871069395438
0.0 0.007720086794740557
0.0 0.007119714972984373
0.0 0.0065662154064476865
0.0 0.006059439521620542
0.0 0.0055943372215969235
0.0 0.00516805258075418
0.0 0.004777235869336602
0.0 0.004420363870130978
0.0 0.004094364551401292
0.0 0.0037981472560702305
0.0 0.0035288145801021294
0.0 0.0032844283292866798
0.0 0.003062776086639498
0.0 0.002863108754264777
0.0 0.0026828685911113813
0.0 0.0025211221149247292
0.0 0.0023768338709303075
0.0 0.002248024370252342
0.0 0.00213438010121252
0.0 0.002035388451646049
0.0 0.0019488602201321677
0.0 0.0018741557706950204
0.0 0.0018107184407777242
0.0 0.0017567528714934062
0.0 0.0017121025702380797
0.0 0.0016756666645609654
0.0 0.001646642220708077
0.0 0.0016236651399046907
0.0 0.0016060783482913924
0.0 0.001592642177268532
0.0 0.0015827707431394296
0.0 0.0015761200559969814
0.0 0.0015709515059834118
0.0 0.001568050414492479
0.0 0.0015651446759861248
0.0 0.0015633182332246685
0.0 0.0015619239649759433
0.0 0.0015605956156788518
0.0 0.0015592761106143916
0.0 0.001557713520843826
0.0 0.0015561025754802138
0.0 0.0015542602000243424
0.0 0.001552254381478855
0.0 0.001550008942365751
0.0 0.001547713566488488
0.0 0.001545321844959757
0.0 0.0015428864354337989
0.0 0.001540424053325106
0.0 0.0015378490628207434
0.0 0.0015353433157386993
0.0 0.0015329412938329577
0.0 0.0015306361736078255
-7.245922952765462e-08 0.004927198390546535
3.9392503726503636e-05 0.0027918017718927663
8.174742027018976e-05 0.0016525541875411784
0.0001181483341577209 0.0012220009343971458
2.5465787943898002e-05 0.0014035436604780778
5.367257483127806e-06 0.0022614238201871975
0.00011420770895590487 0.0012346323268965715
1.1339649572424239e-05 0.0012858766103768446
1.7768976703863325e-05 0.0008310792959490245
7.428451030621922e-07 0.0007718008803381527
3.3441915471401298e-06 0.0007041456035207487
7.822011153277707e-06 0.0006726125026099726
-4.48400442841127e-16 0.014973736461407738
7.747798225159186e-06 0.000665098644211871
3.102514949964307e-05 0.0006449519531950862