# vtk DataFile Version 3.0
Some data
ASCII
DATASET UNSTRUCTURED_GRID
POINTS 7930 float
0.0 0.0 0.0
0.0 10.0 0.0
10.0 10.0 0.0
10.0 0.0 0.0
0.5 0.0 0.0
0.0009999999999981016 0.0 0.0
0.001999999999996203 0.0 0.0
0.002999999999994305 0.0 0.0
0.003999999999992409 0.0 0.0
0.004999999999990531 0.0 0.0
0.005999999999988653 0.0 0.0
0.006999999999986775 0.0 0.0
0.007999999999984898 0.0 0.0
0.008999999999983018 0.0 0.0
0.009999999999981142 0.0 0.0
0.01099999999997926 0.0 0.0
0.01199999999997736 0.0 0.0
0.0129999999999754 0.0 0.0
0.01399999999997343 0.0 0.0
0.01499999999997147 0.0 0.0
0.01599999999996944 0.0 0.0
0.0169999999999673 0.0 0.0
0.01799999999996516 0.0 0.0
0.01899999999996302 0.0 0.0
0.01999999999996084 0.0 0.0
0.02099999999995862 0.0 0.0
0.02199999999995639 0.0 0.0
0.02299999999995417 0.0 0.0
0.02399999999995195 0.0 0.0
0.02499999999994972 0.0 0.0
0.0259999999999475 0.0 0.0
0.02699999999994527 0.0 0.0
0.02799999999994315 0.0 0.0
0.0289999999999411 0.0 0.0
0.02999999999993905 0.0 0.0
0.030999999999937 0.0 0.0
0.03199999999993521 0.0 0.0
0.0329999999999335 0.0 0.0
0.0339999999999318 0.0 0.0
0.03499999999993009 0.0 0.0
0.03599999999992853 0.0 0.0
0.036999999999927 0.0 0.0
0.03799999999992547 0.0 0.0
0.03899999999992394 0.0 0.0
0.03999999999992241 0.0 0.0
0.04099999999992088 0.0 0.0
0.04199999999991934 0.0 0.0
0.04299999999991782 0.0 0.0
0.04399999999991629 0.0 0.0
0.04499999999991475 0.0 0.0
0.04599999999991322 0.0 0.0
0.0469999999999117 0.0 0.0
0.04799999999991016 0.0 0.0
0.04899999999990863 0.0 0.0
0.0499999999999071 0.0 0.0
0.05099999999990557 0.0 0.0
0.05199999999990404 0.0 0.0
0.05299999999990251 0.0 0.0
0.05399999999990097 0.0 0.0
0.05499999999989943 0.0 0.0
0.05599999999989791 0.0 0.0
0.05699999999989638 0.0 0.0
0.05799999999989484 0.0 0.0
0.05899999999989317 0.0 0.0
0.05999999999989129 0.0 0.0
0.06099999999988941 0.0 0.0
0.06199999999988753 0.0 0.0
0.06299999999988531 0.0 0.0
0.06399999999988273 0.0 0.0
0.06499999999988015 0.0 0.0
0.06599999999987759 0.0 0.0
0.0669999999998748 0.0 0.0
0.06799999999987189 0.0 0.0
0.06899999999986897 0.0 0.0
0.06999999999986604 0.0 0.0
0.07099999999986313 0.0 0.0
0.0719999999998602 0.0 0.0
0.07299999999985729 0.0 0.0
0.07399999999985438 0.0 0.0
0.07499999999985145 0.0 0.0
0.07599999999984854 0.0 0.0
0.07699999999984562 0.0 0.0
0.0779999999998427 0.0 0.0
0.07899999999983978 0.0 0.0
0.07999999999983685 0.0 0.0
0.08099999999983394 0.0 0.0
0.08199999999983103 0.0 0.0
0.0829999999998281 0.0 0.0
0.08399999999982519 0.0 0.0
0.08499999999982226 0.0 0.0
0.08599999999981935 0.0 0.0
0.08699999999981643 0.0 0.0
0.0879999999998135 0.0 0.0
0.08899999999981059 0.0 0.0
0.08999999999980766 0.0 0.0
0.09099999999980475 0.0 0.0
0.09199999999980184 0.0 0.0
0.09299999999979891 0.0 0.0
0.093999999999796 0.0 0.0
0.09499999999979307 0.0 0.0
0.09599999999979016 0.0 0.0
0.09699999999978724 0.0 0.0
0.09799999999978432 0.0 0.0
0.0989999999997814 0.0 0.0
0.09999999999977847 0.0 0.0
0.1009999999997756 0.0 0.0
0.1019999999997726 0.0 0.0
0.1029999999997697 0.0 0.0
0.1039999999997668 0.0 0.0
0.1049999999997639 0.0 0.0
0.105999999999761 0.0 0.0
0.106999999999758 0.0 0.0
0.1079999999997551 0.0 0.0
0.1089999999997522 0.0 0.0
0.1099999999997493 0.0 0.0
0.1109999999997464 0.0 0.0
0.1119999999997434 0.0 0.0
0.1129999999997405 0.0 0.0
0.1139999999997376 0.0 0.0
0.1149999999997347 0.0 0.0
0.1159999999997318 0.0 0.0
0.1169999999997288 0.0 0.0
0.1179999999997259 0.0 0.0
0.118999999999723 0.0 0.0
0.1199999999997201 0.0 0.0
0.1209999999997172 0.0 0.0
0.1219999999997143 0.0 0.0
0.1229999999997113 0.0 0.0
0.1239999999997084 0.0 0.0
0.1249999999997055 0.0 0.0
0.1259999999997026 0.0 0.0
0.1269999999996997 0.0 0.0
0.1279999999996967 0.0 0.0
0.1289999999996938 0.0 0.0
0.1299999999996909 0.0 0.0
0.130999999999688 0.0 0.0
0.1319999999996851 0.0 0.0
0.1329999999996822 0.0 0.0
0.1339999999996792 0.0 0.0
0.1349999999996764 0.0 0.0
0.1359999999996734 0.0 0.0
0.1369999999996705 0.0 0.0
0.1379999999996676 0.0 0.0
0.1389999999996647 0.0 0.0
0.1399999999996618 0.0 0.0
0.1409999999996588 0.0 0.0
0.1419999999996559 0.0 0.0
0.142999999999653 0.0 0.0
0.1439999999996501 0.0 0.0
0.1449999999996472 0.0 0.0
0.1459999999996442 0.0 0.0
0.1469999999996414 0.0 0.0
0.1479999999996384 0.0 0.0
0.1489999999996355 0.0 0.0
0.1499999999996326 0.0 0.0
0.1509999999996297 0.0 0.0
0.1519999999996268 0.0 0.0
0.1529999999996239 0.0 0.0
0.1539999999996209 0.0 0.0
0.154999999999618 0.0 0.0
0.1559999999996151 0.0 0.0
0.1569999999996122 0.0 0.0
0.1579999999996093 0.0 0.0
0.1589999999996064 0.0 0.0
0.1599999999996035 0.0 0.0
0.1609999999996005 0.0 0.0
0.1619999999995976 0.0 0.0
0.1629999999995947 0.0 0.0
0.1639999999995918 0.0 0.0
0.1649999999995889 0.0 0.0
0.165999999999586 0.0 0.0
0.1669999999995831 0.0 0.0
0.1679999999995801 0.0 0.0
0.1689999999995772 0.0 0.0
0.1699999999995743 0.0 0.0
0.1709999999995714 0.0 0.0
0.1719999999995685 0.0 0.0
0.1729999999995655 0.0 0.0
0.1739999999995626 0.0 0.0
0.1749999999995597 0.0 0.0
0.1759999999995568 0.0 0.0
0.1769999999995539 0.0 0.0
0.177999999999551 0.0 0.0
0.178999999999548 0.0 0.0
0.1799999999995451 0.0 0.0
0.1809999999995422 0.0 0.0
0.1819999999995393 0.0 0.0
0.1829999999995364 0.0 0.0
0.1839999999995335 0.0 0.0
0.1849999999995305 0.0 0.0
0.1859999999995277 0.0 0.0
0.1869999999995247 0.0 0.0
0.1879999999995218 0.0 0.0
0.1889999999995189 0.0 0.0
0.189999999999516 0.0 0.0
0.1909999999995131 0.0 0.0
0.1919999999995101 0.0 0.0
0.1929999999995072 0.0 0.0
0.1939999999995043 0.0 0.0
0.1949999999995014 0.0 0.0
0.1959999999994985 0.0 0.0
0.1969999999994956 0.0 0.0
0.1979999999994927 0.0 0.0
0.1989999999994897 0.0 0.0
0.1999999999994868 0.0 0.0
0.2009999999994839 0.0 0.0
0.201999999999481 0.0 0.0
0.2029999999994781 0.0 0.0
0.2039999999994752 0.0 0.0
0.2049999999994722 0.0 0.0
0.2059999999994693 0.0 0.0
0.2069999999994664 0.0 0.0
0.2079999999994635 0.0 0.0
0.2089999999994606 0.0 0.0
0.2099999999994577 0.0 0.0
0.2109999999994548 0.0 0.0
0.2119999999994518 0.0 0.0
0.2129999999994489 0.0 0.0
0.213999999999446 0.0 0.0
0.2149999999994431 0.0 0.0
0.2159999999994402 0.0 0.0
0.2169999999994373 0.0 0.0
0.2179999999994343 0.0 0.0
0.2189999999994314 0.0 0.0
0.2199999999994285 0.0 0.0
0.2209999999994256 0.0 0.0
0.2219999999994227 0.0 0.0
0.2229999999994198 0.0 0.0
0.2239999999994168 0.0 0.0
0.2249999999994139 0.0 0.0
0.225999999999411 0.0 0.0
0.2269999999994081 0.0 0.0
0.2279999999994052 0.0 0.0
0.2289999999994023 0.0 0.0
0.2299999999993994 0.0 0.0
0.2309999999993964 0.0 0.0
0.2319999999993935 0.0 0.0
0.2329999999993906 0.0 0.0
0.2339999999993877 0.0 0.0
0.2349999999993848 0.0 0.0
0.2359999999993818 0.0 0.0
0.236999999999379 0.0 0.0
0.237999999999376 0.0 0.0
0.2389999999993731 0.0 0.0
0.2399999999993702 0.0 0.0
0.2409999999993673 0.0 0.0
0.2419999999993644 0.0 0.0
0.2429999999993615 0.0 0.0
0.2439999999993585 0.0 0.0
0.2449999999993556 0.0 0.0
0.2459999999993527 0.0 0.0
0.246999999999351 0.0 0.0
0.2479999999993495 0.0 0.0
0.248999999999348 0.0 0.0
0.2499999999993464 0.0 0.0
0.2509999999993477 0.0 0.0
0.2519999999993489 0.0 0.0
0.2529999999993502 0.0 0.0
0.2539999999993516 0.0 0.0
0.2549999999993542 0.0 0.0
0.2559999999993569 0.0 0.0
0.2569999999993595 0.0 0.0
0.2579999999993621 0.0 0.0
0.2589999999993647 0.0 0.0
0.2599999999993673 0.0 0.0
0.26099999999937 0.0 0.0
0.2619999999993726 0.0 0.0
0.2629999999993753 0.0 0.0
0.2639999999993779 0.0 0.0
0.2649999999993806 0.0 0.0
0.2659999999993832 0.0 0.0
0.2669999999993858 0.0 0.0
0.2679999999993884 0.0 0.0
0.2689999999993911 0.0 0.0
0.2699999999993937 0.0 0.0
0.2709999999993963 0.0 0.0
0.271999999999399 0.0 0.0
0.2729999999994017 0.0 0.0
0.2739999999994043 0.0 0.0
0.2749999999994069 0.0 0.0
0.2759999999994096 0.0 0.0
0.2769999999994122 0.0 0.0
0.2779999999994148 0.0 0.0
0.2789999999994174 0.0 0.0
0.2799999999994201 0.0 0.0
0.2809999999994228 0.0 0.0
0.2819999999994254 0.0 0.0
0.282999999999428 0.0 0.0
0.2839999999994306 0.0 0.0
0.2849999999994333 0.0 0.0
0.2859999999994359 0.0 0.0
0.2869999999994385 0.0 0.0
0.2879999999994411 0.0 0.0
0.2889999999994439 0.0 0.0
0.2899999999994465 0.0 0.0
0.2909999999994491 0.0 0.0
0.2919999999994517 0.0 0.0
0.2929999999994544 0.0 0.0
0.293999999999457 0.0 0.0
0.2949999999994596 0.0 0.0
0.2959999999994622 0.0 0.0
0.2969999999994649 0.0 0.0
0.2979999999994676 0.0 0.0
0.2989999999994702 0.0 0.0
0.2999999999994728 0.0 0.0
0.3009999999994754 0.0 0.0
0.3019999999994781 0.0 0.0
0.3029999999994807 0.0 0.0
0.3039999999994834 0.0 0.0
0.304999999999486 0.0 0.0
0.3059999999994886 0.0 0.0
0.3069999999994913 0.0 0.0
0.3079999999994939 0.0 0.0
0.3089999999994965 0.0 0.0
0.3099999999994992 0.0 0.0
0.3109999999995018 0.0 0.0
0.3119999999995045 0.0 0.0
0.3129999999995071 0.0 0.0
0.3139999999995097 0.0 0.0
0.3149999999995123 0.0 0.0
0.315999999999515 0.0 0.0
0.3169999999995176 0.0 0.0
0.3179999999995203 0.0 0.0
0.3189999999995229 0.0 0.0
0.3199999999995256 0.0 0.0
0.3209999999995282 0.0 0.0
0.3219999999995308 0.0 0.0
0.3229999999995334 0.0 0.0
0.323999999999536 0.0 0.0
0.3249999999995387 0.0 0.0
0.3259999999995414 0.0 0.0
0.326999999999544 0.0 0.0
0.3279999999995466 0.0 0.0
0.3289999999995493 0.0 0.0
0.3299999999995519 0.0 0.0
0.3309999999995545 0.0 0.0
0.3319999999995571 0.0 0.0
0.3329999999995598 0.0 0.0
0.3339999999995625 0.0 0.0
0.3349999999995651 0.0 0.0
0.3359999999995677 0.0 0.0
0.3369999999995703 0.0 0.0
0.337999999999573 0.0 0.0
0.3389999999995756 0.0 0.0
0.3399999999995783 0.0 0.0
0.3409999999995809 0.0 0.0
0.3419999999995835 0.0 0.0
0.3429999999995862 0.0 0.0
0.3439999999995888 0.0 0.0
0.3449999999995914 0.0 0.0
0.345999999999594 0.0 0.0
0.3469999999995967 0.0 0.0
0.3479999999995994 0.0 0.0
0.348999999999602 0.0 0.0
0.3499999999996046 0.0 0.0
0.3509999999996072 0.0 0.0
0.3519999999996099 0.0 0.0
0.3529999999996125 0.0 0.0
0.3539999999996151 0.0 0.0
0.3549999999996178 0.0 0.0
0.3559999999996205 0.0 0.0
0.3569999999996231 0.0 0.0
0.3579999999996257 0.0 0.0
0.3589999999996283 0.0 0.0
0.359999999999631 0.0 0.0
0.3609999999996336 0.0 0.0
0.3619999999996362 0.0 0.0
[...]
POINT_DATA 7930
SCALARS Disp float 2
LOOKUP_TABLE default
0.0 0.0021596520665507694
0.0 0.1
0.0 0.1
0.0 0.0
7.722450487942888e-07 0.0
-6.888546057686313e-06 0.0021594565946731086
-1.376073009851292e-05 0.0021591072284038396
-2.0644407799875703e-05 0.0021587414100242234
-2.747965081043533e-05 0.0021577945751976506
-3.411841533601022e-05 0.002156539229822909
-4.0983713115519316e-05 0.002155862797861044
-4.8117860793296275e-05 0.0021547819274879325
-5.483690220084337e-05 0.0021525081175764603
-6.130988515840465e-05 0.002150357682031826
-6.804374830139733e-05 0.0021493775597096975
-7.548508265604782e-05 0.0021480562100079387
-8.251865156265837e-05 0.002144477318292872
-8.859752533076182e-05 0.00214083133030116
-9.521490382823152e-05 0.002139146790687226
-0.00010280300981518401 0.002137551946389524
-0.00010986176030307618 0.002133268319441394
-0.00011603088064211426 0.002128369780046622
-0.00012240280952351338 0.0021256465658042547
-0.00013001970102268523 0.0021232763897072837
-0.00013717078882455205 0.0021180144574618966
-0.000143207531013802 0.0021120837709818585
-0.00014951923993421494 0.0021090200633616623
-0.00015720463229129474 0.0021064109978349453
-0.00016466730444373754 0.002100168250612491
-0.0001705671558347025 0.0020925439064449066
-0.0001767070595372311 0.002088681926407871
-0.00018425389464848575 0.00208565301304758
-0.0001919455901063051 0.0020788439058383196
-0.00019809563685316126 0.002070248117289144
-0.0002042533390820983 0.0020649573690882297
-0.00021182893684719675 0.002061182589977382
-0.0002196130069688179 0.002053391414344489
-0.00022574791865049974 0.0020433742278184496
-0.0002319164894496609 0.0020368038013072057
-0.00023925962697503436 0.0020323445493364155
-0.0002471889125122613 0.0020238580619283764
-0.00025336161452405644 0.0020126357169684833
-0.00025916762910196023 0.0020049833323193588
-0.00026667985822203795 0.0019999119893563144
-0.0002746700722634452 0.001990486423574071
-0.00028084883816949165 0.001977908985213707
-0.0002868661724342831 0.001969046886013448
-0.0002940977185077703 0.001962771739190232
-0.0003022638967539099 0.0019523736703550509
-0.0003084884186831541 0.001938316924723553
-0.00031393021572445146 0.0019279996296404868
-0.0003213290764781506 0.001921141849705739
-0.0003290456254628232 0.0019102577170203407
-0.00033550101775992036 0.0018953754294769622
-0.0003411490351626266 0.0018835094929498927
-0.00034826214256736737 0.0018753784477457758
-0.0003561816643337939 0.0018635844069340402
-0.0003627728352457708 0.0018467534357980563
-0.0003681069302077813 0.001833831124897164
-0.0003751925148497504 0.0018250682601947173
-0.0003835418292291362 0.001812268785845566
-0.000390286706755701 0.0017941219088762846
-0.00039558114356147195 0.0017789551866594273
-0.0004024908212528253 0.001768596739223213
-0.0004108185104155812 0.0017549654140336928
-0.0004179341171669329 0.00173541609283132
-0.0004237166502466498 0.0017179283615927302
-0.0004304526750501289 0.0017055156633338697
-0.00043846758044427695 0.001690303252708226
-0.0004453672918428607 0.0016690149630398533
-0.00045059071668235404 0.0016497520982692113
-0.00045698065161135077 0.0016361076669446552
-0.000465085277070481 0.0016198388697081754
-0.00047238285756622195 0.0015968588565735268
-0.00047778707747709535 0.0015753757300441095
-0.00048413683668098304 0.001559688797460564
-0.0004920535898012879 0.001541753750898853
-0.0004995066717416894 0.0015165654744819111
-0.0005049242263041573 0.0014921445568926558
-0.0005109822762459284 0.0014739619569953922
-0.0005191672956060242 0.0014539876237569698
-0.0005266874477177405 0.0014263907601323705
-0.0005320172954832235 0.0013993982314732371
-0.0005380774390985758 0.0013787196716695533
-0.0005464183653108942 0.0013563129378090465
-0.0005544289471335434 0.0013257281083143353
-0.0005596456700604928 0.0012947412842620337
-0.0005654577859988832 0.0012700070307410786
-0.0005738467896262039 0.0012442621021968073
-0.0005812242385429936 0.0012098170619592422
-0.0005867636564573073 0.0011742668245311682
-0.0005923884148887124 0.0011455007464223502
-0.0006004396067985507 0.0011154473390461955
-0.0006085865603727889 0.0010759842586488338
-0.0006140469777250459 0.0010341328917285396
-0.0006194233856824022 0.0009985184554617923
-0.0006275108278450615 0.0009617098662365051
-0.0006350809812099518 0.0009147873764431636
-0.0006411133556682679 0.0008638714403459854
-0.0006469804693588379 0.0008176818491573654
-0.0006542459041292047 0.0007695826449639097
-0.0006634918458169524 0.0007079451738265253
-0.0006688591093561414 0.0006385868458201254
-0.0006731360306180091 0.0005692146605400772
-0.0006812987851673911 0.0004905544282639289
-0.0006859800270504813 0.00039023985487680825
-0.000688095354928016 0.00025119698651712664
-0.0006483283759250941 0.0
-0.0005958030485916598 0.0
-0.000561537710406699 0.0
-0.0005362865209243077 0.0
-0.0005155655468494194 0.0
-0.0004987596794063919 0.0
-0.0004827111358903473 0.0
-0.00046886111278903386 0.0
-0.00045645890102511587 0.0
-0.00044492464621431673 0.0
-0.0004342854136783477 0.0
-0.00042439839748178396 0.0
-0.00041504998970362804 0.0
-0.0004062761735543488 0.0
-0.00039802482128570223 0.0
-0.0003902053726425423 0.0
-0.00038288135295033677 0.0
-0.0003756477405318553 0.0
-0.00036889211106150624 0.0
-0.0003623815883347287 0.0
-0.0003561822648975639 0.0
-0.0003501489406533448 0.0
-0.0003443933780484885 0.0
-0.0003388386589073585 0.0
-0.0003334741528947685 0.0
-0.0003282891498323744 0.0
-0.0003232858784029441 0.0
-0.0003184453139459799 0.0
-0.0003137534638678109 0.0
-0.0003091992997594668 0.0
-0.0003048036732425707 0.0
-0.00030056200547063484 0.0
-0.0002963766763767618 0.0
-0.00029234723794314016 0.0
-0.00028841009440875464 0.0
-0.0002845814804248813 0.0
-0.00028084535071926954 0.0
-0.00027720195452360304 0.0
-0.00027365195464143727 0.0
-0.00027018979114658113 0.0
-0.0002668081932240664 0.0
-0.000263493856472015 0.0
-0.0002602577410069763 0.0
-0.0002570949397952356 0.0
-0.00025399684707705383 0.0
-0.0002509694003169306 0.0
-0.00024800540292439527 0.0
-0.00024509821633835946 0.0
-0.00024225110534336657 0.0
-0.00023946292665337487 0.0
-0.00023672683754274852 0.0
-0.0002340430387711848 0.0
-0.00023141645035982343 0.0
-0.0002288493305295988 0.0
-0.0002263090924089088 0.0
-0.00022383813898461981 0.0
-0.0002214060477988443 0.0
-0.00021901784404903038 0.0
-0.00021668043497687743 0.0
-0.00021435914672027117 0.0
-0.000212097002793166 0.0
-0.00020986990773041303 0.0
-0.000207676830531322 0.0
-0.00020552107452783132 0.0
-0.0002033990965011333 0.0
-0.000201309474013917 0.0
-0.00019925057975618714 0.0
-0.00019722389573429268 0.0
-0.00019522735742266467 0.0
-0.00019325780435755098 0.0
-0.00019132162238480417 0.0
-0.0001894179848980874 0.0
-0.00018754166094206895 0.0
-0.00018569270259052368 0.0
-0.0001838735668256743 0.0
-0.00018208425284963522 0.0
-0.00018031770142680495 0.0
-0.00017857717987323883 0.0
-0.00017686373627742984 0.0
-0.00017517293288742906 0.0
-0.00017350429425337289 0.0
-0.00017185854024342833 0.0
-0.00017023697984782968 0.0
-0.00016863381485617202 0.0
-0.00016705153090459571 0.0
-0.00016548901909489483 0.0
-0.00016394510904644833 0.0
-0.00016242134525492173 0.0
-0.0001609177386975631 0.0
-0.00015943071223984274 0.0
-0.00015796201997078836 0.0
-0.00015651032519027242 0.0
-0.00015507627664907822 0.0
-0.00015366173262069006 0.0
-0.00015226327903154283 0.0
-0.00015088014821430895 0.0
-0.00014951541250182032 0.0
-0.00014816496292297985 0.0
-0.00014683047384851276 0.0
-0.0001455127297419918 0.0
-0.00014420998724572139 0.0
-0.00014292083417856438 0.0
-0.00014164881102272594 0.0
-0.00014038561481259754 0.0
-0.0001391361549058422 0.0
-0.00013790009106547522 0.0
-0.0001366784287842225 0.0
-0.0001354685389414468 0.0
-0.00013427099369689126 0.0
-0.0001330862824311821 0.0
-0.00013191268066240023 0.0
-0.00013075082471817383 0.0
-0.0001296052322743505 0.0
-0.00012846457376799095 0.0
-0.0001273388599409158 0.0
-0.00012622575543119583 0.0
-0.0001251227448950843 0.0
-0.00012403158889741193 0.0
-0.0001229522444077267 0.0
-0.00012188403954853886 0.0
-0.00012082658460654781 0.0
-0.00011978042584876028 0.0
-0.00011874521031962284 0.0
-0.00011772013768201397 0.0
-0.00011670622538478073 0.0
-0.00011570220959635408 0.0
-0.00011470802971425253 0.0
-0.00011372427889300165 0.0
-0.0001127493213153467 0.0
-0.00011178294491171259 0.0
-0.00011082643200949229 0.0
-0.00010987914317709802 0.0
-0.00010893963216162976 0.0
-0.00010801004738204431 0.0
-0.00010708862962751639 0.0
-0.00010617622570838007 0.0
-0.00010527233936515328 0.0
-0.00010437656266865892 0.0
-0.00010348863873218979 0.0
-0.00010260861046646104 0.0
-0.00010173686101764277 0.0
-0.00010087215246004291 0.0
-0.00010001515655151383 0.0
-9.916671874055217e-05 0.0
-9.832432970780655e-05 0.0
-9.748886993562553e-05 0.0
-9.666113289767907e-05 0.0
-9.583981624738171e-05 0.0
-9.502512289927017e-05 0.0
-9.421674728932025e-05 0.0
-9.341392954680342e-05 0.0
-9.261731733071342e-05 0.0
-9.182716013987989e-05 0.0
-9.104229589176962e-05 0.0
-9.026320792601489e-05 0.0
-8.948975815178061e-05 0.0
-8.872222077497394e-05 0.0
-8.796060355298109e-05 0.0
-8.720480952988734e-05 0.0
-8.645465051578314e-05 0.0
-8.571009101514695e-05 0.0
-8.497173937577718e-05 0.0
-8.423920222601525e-05 0.0
-8.351306441248205e-05 0.0
-8.279334734453438e-05 0.0
-8.207992198971106e-05 0.0
-8.137093903654937e-05 0.0
-8.067099937477452e-05 0.0
-7.99750412730942e-05 0.0
-7.928743305255915e-05 0.0
-7.8603868297791e-05 0.0
-7.792683143417219e-05 0.0
-7.725588367964411e-05 0.0
-7.659098777782669e-05 0.0
-7.593192086956322e-05 0.0
-7.527826005224735e-05 0.0
-7.463016249910675e-05 0.0
-7.398752969189569e-05 0.0
-7.334982718980949e-05 0.0
-7.271677099240406e-05 0.0
-7.208866461642414e-05 0.0
-7.146524185930784e-05 0.0
-7.084603759001612e-05 0.0
-7.023124281643344e-05 0.0
-6.962090209358484e-05 0.0
-6.901492331655947e-05 0.0
-6.841333435691828e-05 0.0
-6.781352408438256e-05 0.0
-6.721938423903654e-05 0.0
-6.66292052931664e-05 0.0
-6.604298297499199e-05 0.0
-6.546198358006069e-05 0.0
-6.488310047707822e-05 0.0
-6.430865956556209e-05 0.0
-6.373858508436101e-05 0.0
-6.317283076684534e-05 0.0
-6.261093434461584e-05 0.0
-6.205312368748918e-05 0.0
-6.149927101948526e-05 0.0
-6.094971878750194e-05 0.0
-6.040413120136675e-05 0.0
-5.986250142978655e-05 0.0
-5.932494529460891e-05 0.0
-5.879149103726796e-05 0.0
-5.82620188029783e-05 0.0
-5.773448993430153e-05 0.0
-5.72116118901503e-05 0.0
-5.66924226193525e-05 0.0
-5.61768088041002e-05 0.0
-5.566557157589129e-05 0.0
-5.515554910663314e-05 0.0
-5.464888961316542e-05 0.0
-5.414554560878427e-05 0.0
-5.364528113286771e-05 0.0
-5.314775437001776e-05 0.0
-5.265359884125081e-05 0.0
-5.216215412709654e-05 0.0
-5.167363392877974e-05 0.0
-5.118772880431939e-05 0.0
-5.070461214857975e-05 0.0
-5.022432650434154e-05 0.0
-4.974655876543293e-05 0.0
-4.927169899852491e-05 0.0
-4.88000744172594e-05 0.0
-4.8330923781507445e-05 0.0
-4.786455738091106e-05 0.0
-4.740139977349238e-05 0.0
-4.6941206770424265e-05 0.0
-4.648382237367526e-05 0.0
-4.602961034088732e-05 0.0
-4.5578268429014954e-05 0.0
-4.513017289507335e-05 0.0
-4.468511952516348e-05 0.0
-4.42430669727827e-05 0.0
-4.380397597765425e-05 0.0
-4.336793992398963e-05 0.0
-4.293517154219656e-05 0.0
-4.250549052208161e-05 0.0
-4.207872724316887e-05 0.0
-4.165483075068894e-05 0.0
-4.123398996197406e-05 0.0
-4.0816072365535897e-05 0.0
-4.040081358212031e-05 0.0
-3.998854530592122e-05 0.0
-3.957909535072597e-05 0.0
-3.9172399995567244e-05 0.0
-3.876828505868583e-05 0.0
-3.836676516627178e-05 0.0
-3.7967817587073974e-05 0.0
-3.7571234220697196e-05 0.0
-3.7177236447879546e-05 0.0
-3.6785570810873734e-05 0.0
-3.63961752103611e-05 0.0
-3.600902973162673e-05 0.0
-3.5624225449458584e-05 0.0
-3.5241741922099254e-05 0.0
-3.486141168301395e-05 0.0
-3.448322822325642e-05 0.0
-3.410726032880873e-05 0.0
-3.3733443161284765e-05 0.0
-3.336183891827488e-05 0.0
-3.299240986892684e-05 0.0
-3.262511835888309e-05 0.0
-3.2259951308506034e-05 0.0
-3.189701801267792e-05 0.0
-3.153633296029537e-05 0.0
-3.1177949211891633e-05 0.0
-3.082082984391494e-05 0.0
-3.0466426056299547e-05 0.0
-3.0114283781083817e-05 0.0
-2.9764316350796997e-05 0.0
-2.9416548758874138e-05 0.0
-2.9070996929038346e-05 0.0
-2.872762623592991e-05 0.0
-2.8386368122345977e-05 0.0
-2.804735438975776e-05 0.0
-2.7710395817886843e-05 0.0
-2.737562273476337e-05 0.0
-2.7043032514278503e-05 0.0
-2.671255089371884e-05 0.0
-2.638418992390531e-05 0.0
-2.605801688683499e-05 0.0
-2.573366573155841e-05 0.0
-2.5411397500731486e-05 0.0
-2.5091106463448345e-05 0.0
-2.4772793006589844e-05 0.0
-2.4456366979268355e-05 0.0
-2.414180202918324e-05 0.0
-2.3829115730528176e-05 0.0
-2.351819497345418e-05 0.0
-2.3209062517891875e-05 0.0
-2.2901720197994737e-05 0.0
-2.259614660885731e-05 0.0
-2.2292199861263433e-05 0.0
-2.1989930038799804e-05 0.0
-2.1689310668380858e-05 0.0
-2.139020846820356e-05 0.0
-2.1092914914531425e-05 0.0
-2.0797184325640405e-05 0.0
-2.0503012022591625e-05 0.0
-2.0210515273787256e-05 0.0
-1.9919708064385204e-05 0.0
-1.9630445864849873e-05 0.0
-1.9342772227976293e-05 0.0
-1.9056770422719725e-05 0.0
-1.8772490504993572e-05 0.0
-1.8489781515980056e-05 0.0
-1.8208761694828246e-05 0.0
-1.7929346618927548e-05 0.0
-1.7651560946080612e-05 0.0
-1.7375649821226856e-05 0.0
-1.7101598777478695e-05 0.0
-1.682927301968416e-05 0.0
-1.655881168871285e-05 0.0
-1.6290176678171074e-05 0.0
-1.6023322604865926e-05 0.0
-1.57583375737401e-05 0.0
-1.54951080837821e-05 0.0
-1.5233794724409409e-05 0.0
-1.497440900883847e-05 0.0
-1.471684241310372e-05 0.0
-1.446106464357707e-05 0.0
-1.4207211684986041e-05 0.0
-1.3955250818163583e-05 0.0
-1.3705048303103962e-05 0.0
-1.3456625439604236e-05 0.0
-1.3209910565192024e-05 0.0
-1.296497010703268e-05 0.0
-1.2721755950257055e-05 0.0
-1.2480124418605971e-05 0.0
-1.2240135752710977e-05 0.0
-1.2001914353633898e-05 0.0
-1.1764955173105867e-05 0.0
-1.1529572416266265e-05 0.0
-1.1295693632180142e-05 0.0
-1.1063310175255686e-05 0.0
-1.0832248815164155e-05 0.0
-1.0602456196875118e-05 0.0
-1.0374032591755106e-05 0.0
-1.0146906646282011e-05 0.0
-9.92108805160763e-06 0.0
-9.696624182472837e-06 0.0
-9.47307750481869e-06 0.0
-9.250804309867792e-06 0.0
-9.029709648411523e-06 0.0
-8.809793401822185e-06 0.0
-8.5909735053108e-06 0.0
-8.37337478250152e-06 0.0
-8.156916858092135e-06 0.0
-7.94158473757728e-06 0.0
-7.727438762746132e-06 0.0
-7.514454211192345e-06 0.0
-7.302739215767869e-06 0.0
-7.092293582862509e-06 0.0
-6.8831940334465e-06 0.0
-6.675212206054335e-06 0.0
-6.468719182613675e-06 0.0
-6.263615076852177e-06 0.0
-6.060003395191955e-06 0.0
-5.857787344184368e-06 0.0
-5.6570452403911785e-06 0.0
-5.4577291090027206e-06 0.0
-5.2599855050734325e-06 0.0
-5.063905124706798e-06 0.0
-4.869400053853875e-06 0.0
-4.676389005478007e-06 0.0
-4.485005641150151e-06 0.0
-4.295164135923477e-06 0.0
-4.106957609830008e-06 0.0
-3.920353991885583e-06 0.0
-3.735396611998002e-06 0.0
-3.552031269686156e-06 0.0
-3.3702174121680725e-06 0.0
-3.1900179383105735e-06 0.0
-3.011350480065779e-06 0.0
-2.8341718360635544e-06 0.0
-2.658422374523271e-06 0.0
-2.4840573173314564e-06 0.0
-2.3110801124885276e-06 0.0
-2.139453482593626e-06 0.0
-1.9690786831729546e-06 0.0
-1.7998646240261245e-06 0.0
-1.6319094320896094e-06 0.0
-1.465117164448049e-06 0.0
-1.2994105955492318e-06 0.0
-1.1348019253883267e-06 0.0
-9.711147443919436e-07 0.0
-8.083688190999503e-07 0.0
-6.465623856959322e-07 0.0
-4.856010499183213e-07 0.0
-3.254526407996952e-07 0.0
-1.6615289302474165e-07 0.0
-7.723715208843302e-09 0.0
1.498691665638462e-07 0.0
3.066549416678671e-07 0.0
4.626917272833897e-07 0.0
6.178742622703512e-07 0.0
9.313333102075022e-07 0.0
1.103184561472947e-06 0.0
1.2887859350506686e-06 0.0
1.4890285763341178e-06 0.0
1.704797104964925e-06 0.0
1.9370000583798077e-06 0.0
2.1863444098673403e-06 0.0
2.4534458807227348e-06 0.0
2.7389081293478242e-06 0.0
3.042859229495994e-06 0.0
3.365083629863272e-06 0.0
3.7054518835105643e-06 0.0
4.062184153784764e-06 0.0
4.43512455613749e-06 0.0
4.822093636414932e-06 0.0
5.220740681750465e-06 0.0
5.627414936941634e-06 0.0
6.042161075793695e-06 0.0
6.461937201788122e-06 0.0
6.888430862573117e-06 0.0
7.317660808123636e-06 0.0
7.743134748236727e-06 0.0
8.147872225950262e-06 0.0
8.533072619531878e-06 0.0
8.86488527842134e-06 0.0
9.13766028887575e-06 0.0
9.334935918165529e-06 0.0
9.464484902113543e-06 0.0
9.541616884657184e-06 0.0
9.556211224644698e-06 0.0
9.474653460588916e-06 0.0
9.260239636501788e-06 0.0
8.905530780189214e-06 0.0
8.447110433169791e-06 0.0
7.919592339684526e-06 0.0
7.270423621575731e-06 0.0
6.430590478962646e-06 0.0
5.462028356370961e-06 0.0
4.514867240990379e-06 0.0
3.5145462222719447e-06 0.0
2.341250668811024e-06 0.0
1.191475543717904e-06 0.0
4.193342995926436e-07 0.0
8.440069935113421e-08 0.0
6.563400390196994e-09 0.0
2.12739111950134e-10 0.0
-1.210020806063844e-11 0.0
-1.0567766880854152e-11 0.0
-3.3968130865086863e-12 0.0
1.1136206285208387e-13 0.0
-5.959225894187487e-14 0.0
-1.1335230805878853e-13 0.0
-2.243490947823258e-14 0.0
-3.635158109010023e-14 0.0
2.3745297321008222e-14 0.0
2.1054986760837197e-14 0.0
5.828244975374443e-15 0.0
-1.064699454928047e-15 0.0
5.935903574807233e-16 0.0
8.516874197376567e-17 0.0
2.6719047199635454e-16 0.0
5.476319602471557e-16 0.0
4.1533047834697353e-16 0.0
9.424994450057998e-17 0.0
-2.472759379714435e-16 0.0
-6.259424812760114e-16 0.0
-3.008066072053083e-16 0.0
3.565987174298339e-16 0.0
-2.674480236571973e-16 0.0
-2.539564782399338e-16 0.0
1.0092733669386337e-15 0.0
5.856487331459313e-16 0.0
-2.0165206849306474e-15 0.0
9.792252318615506e-16 0.0
2.2294799665293774e-15 0.0
-3.1667327084943327e-15 0.0
7.265740295687716e-16 0.0
1.6502001615153198e-15 0.0
-2.242959142396112e-15 0.0
0.0 0.009234165287259408
0.0 0.02210978593046527
0.0 0.04006285207144057
0.0 0.06509563926307403
-3.465662023121492e-15 0.1
-4.34158045911201e-15 0.1
5.017624528490969e-14 0.1
-5.086330876970602e-14 0.1
0.0 0.09234095951657535
0.0 0.08526779443703197
0.0 0.07873568783499384
0.0 0.07270325358165762
0.0 0.06713226878990036
0.0 0.06198743331090539
0.0 0.05723615233795156
0.0 0.05284831692952649
0.0 0.04879612844994171
0.0 0.04505391065784987
0.0 0.04159795282713447
0.0 0.038406357242577516
0.0 0.03545890171822737
0.0 0.03273691087333771
0.0 0.030223137736037593
0.0 0.02790165483820852
0.0 0.025757753001958438
0.0 0.023777848352159896
0.0 0.02194939580709377
0.0 0.02026081025966992
0.0 0.01870139221244273
0.0 0.017261261636552817
0.0 0.01593129338195387
0.0 0.014703059180491234
0.0 0.013568783503077185
0.0 0.01252126448925442
0.0 0.01155386832997485
0.0 0.010660709236353738
0.0 0.009834601827586036
0.0 0.009076100295646556
0.0 0.008380610110971342
0.0 0.00774223460093079
0.0 0.00715710463647319
0.0 0.006621375970332481
0.0 0.006131015748331181
0.0 0.00568514396869266
0.0 0.005278945614366013
0.0 0.00491012028761384
0.0 0.004575769484138535
0.0 0.004272688446136241
0.0 0.003998657936086798
0.0 0.003752162209026602
0.0 0.0035305505932588846
0.0 0.0033329239530437856
0.0 0.0031576429049327602
0.0 0.003002361416209371
0.0 0.0028660614959362374
0.0 0.002747771474538923
0.0 0.002645014159778046
0.0 0.002557269719414455
0.0 0.002484121076004664
0.0 0.002422486586181676
0.0 0.002371884464663742
0.0 0.002331684971053216
0.0 0.002298743133205309
0.0 0.00227337271974952
0.0 0.0022541846686376914
0.0 0.002240247275159684
0.0 0.0022298310269803644
0.0 0.002222339737083964
0.0 0.0022170918183314096
0.0 0.002213401820192414
0.0 0.0022110082041678536
0.0 0.002208581723828684
0.0 0.002207195126065036
0.0 0.002204987195649515
0.0 0.002203160394909522
0.0 0.0022012729693618436
0.0 0.0021992101047835777
0.0 0.002197003901695583
0.0 0.0021945022673256435
0.0 0.0021918948333407365
0.0 0.0021891321964636733
0.0 0.0021863274269574417
0.0 0.002183435107447889
0.0 0.00218058772734053
0.0 0.002177736973995664
0.0 0.0021749097810561196
0.0 0.002172134453023598
0.0 0.0021694069094431675
0.0 0.0021668323487337585
0.0 0.0021643320629111855
0.0 0.0021619274976421737
1.943773188075536e-05 0.004940904566074817