# vtk DataFile Version 3.0
Some data
ASCII
DATASET UNSTRUCTURED_GRID
POINTS 7930 float
0.0 0.0 0.0
0.0 10.0 0.0
10.0 10.0 0.0
10.0 0.0 0.0
0.5 0.0 0.0
0.0009999999999981016 0.0 0.0
0.001999999999996203 0.0 0.0
0.002999999999994305 0.0 0.0
0.003999999999992409 0.0 0.0
0.004999999999990531 0.0 0.0
0.005999999999988653 0.0 0.0
0.006999999999986775 0.0 0.0
0.007999999999984898 0.0 0.0
0.008999999999983018 0.0 0.0
0.009999999999981142 0.0 0.0
0.01099999999997926 0.0 0.0
0.01199999999997736 0.0 0.0
0.0129999999999754 0.0 0.0
0.01399999999997343 0.0 0.0
0.01499999999997147 0.0 0.0
0.01599999999996944 0.0 0.0
0.0169999999999673 0.0 0.0
0.01799999999996516 0.0 0.0
0.01899999999996302 0.0 0.0
0.01999999999996084 0.0 0.0
0.02099999999995862 0.0 0.0
0.02199999999995639 0.0 0.0
0.02299999999995417 0.0 0.0
0.02399999999995195 0.0 0.0
0.02499999999994972 0.0 0.0
0.0259999999999475 0.0 0.0
0.02699999999994527 0.0 0.0
0.02799999999994315 0.0 0.0
0.0289999999999411 0.0 0.0
0.02999999999993905 0.0 0.0
0.030999999999937 0.0 0.0
0.03199999999993521 0.0 0.0
0.0329999999999335 0.0 0.0
0.0339999999999318 0.0 0.0
0.03499999999993009 0.0 0.0
0.03599999999992853 0.0 0.0
0.036999999999927 0.0 0.0
0.03799999999992547 0.0 0.0
0.03899999999992394 0.0 0.0
0.03999999999992241 0.0 0.0
0.04099999999992088 0.0 0.0
0.04199999999991934 0.0 0.0
0.04299999999991782 0.0 0.0
0.04399999999991629 0.0 0.0
0.04499999999991475 0.0 0.0
0.04599999999991322 0.0 0.0
0.0469999999999117 0.0 0.0
0.04799999999991016 0.0 0.0
0.04899999999990863 0.0 0.0
0.0499999999999071 0.0 0.0
0.05099999999990557 0.0 0.0
0.05199999999990404 0.0 0.0
0.05299999999990251 0.0 0.0
0.05399999999990097 0.0 0.0
0.05499999999989943 0.0 0.0
0.05599999999989791 0.0 0.0
0.05699999999989638 0.0 0.0
0.05799999999989484 0.0 0.0
0.05899999999989317 0.0 0.0
0.05999999999989129 0.0 0.0
0.06099999999988941 0.0 0.0
0.06199999999988753 0.0 0.0
0.06299999999988531 0.0 0.0
0.06399999999988273 0.0 0.0
0.06499999999988015 0.0 0.0
0.06599999999987759 0.0 0.0
0.0669999999998748 0.0 0.0
0.06799999999987189 0.0 0.0
0.06899999999986897 0.0 0.0
0.06999999999986604 0.0 0.0
0.07099999999986313 0.0 0.0
0.0719999999998602 0.0 0.0
0.07299999999985729 0.0 0.0
0.07399999999985438 0.0 0.0
0.07499999999985145 0.0 0.0
0.07599999999984854 0.0 0.0
0.07699999999984562 0.0 0.0
0.0779999999998427 0.0 0.0
0.07899999999983978 0.0 0.0
0.07999999999983685 0.0 0.0
0.08099999999983394 0.0 0.0
0.08199999999983103 0.0 0.0
0.0829999999998281 0.0 0.0
0.08399999999982519 0.0 0.0
0.08499999999982226 0.0 0.0
0.08599999999981935 0.0 0.0
0.08699999999981643 0.0 0.0
0.0879999999998135 0.0 0.0
0.08899999999981059 0.0 0.0
0.08999999999980766 0.0 0.0
0.09099999999980475 0.0 0.0
0.09199999999980184 0.0 0.0
0.09299999999979891 0.0 0.0
0.093999999999796 0.0 0.0
0.09499999999979307 0.0 0.0
0.09599999999979016 0.0 0.0
0.09699999999978724 0.0 0.0
0.09799999999978432 0.0 0.0
0.0989999999997814 0.0 0.0
0.09999999999977847 0.0 0.0
0.1009999999997756 0.0 0.0
0.1019999999997726 0.0 0.0
0.1029999999997697 0.0 0.0
0.1039999999997668 0.0 0.0
0.1049999999997639 0.0 0.0
0.105999999999761 0.0 0.0
0.106999999999758 0.0 0.0
0.1079999999997551 0.0 0.0
0.1089999999997522 0.0 0.0
0.1099999999997493 0.0 0.0
0.1109999999997464 0.0 0.0
0.1119999999997434 0.0 0.0
0.1129999999997405 0.0 0.0
0.1139999999997376 0.0 0.0
0.1149999999997347 0.0 0.0
0.1159999999997318 0.0 0.0
0.1169999999997288 0.0 0.0
0.1179999999997259 0.0 0.0
0.118999999999723 0.0 0.0
0.1199999999997201 0.0 0.0
0.1209999999997172 0.0 0.0
0.1219999999997143 0.0 0.0
0.1229999999997113 0.0 0.0
0.1239999999997084 0.0 0.0
0.1249999999997055 0.0 0.0
0.1259999999997026 0.0 0.0
0.1269999999996997 0.0 0.0
0.1279999999996967 0.0 0.0
0.1289999999996938 0.0 0.0
0.1299999999996909 0.0 0.0
0.130999999999688 0.0 0.0
0.1319999999996851 0.0 0.0
0.1329999999996822 0.0 0.0
0.1339999999996792 0.0 0.0
0.1349999999996764 0.0 0.0
0.1359999999996734 0.0 0.0
0.1369999999996705 0.0 0.0
0.1379999999996676 0.0 0.0
0.1389999999996647 0.0 0.0
0.1399999999996618 0.0 0.0
0.1409999999996588 0.0 0.0
0.1419999999996559 0.0 0.0
0.142999999999653 0.0 0.0
0.1439999999996501 0.0 0.0
0.1449999999996472 0.0 0.0
0.1459999999996442 0.0 0.0
0.1469999999996414 0.0 0.0
0.1479999999996384 0.0 0.0
0.1489999999996355 0.0 0.0
0.1499999999996326 0.0 0.0
0.1509999999996297 0.0 0.0
0.1519999999996268 0.0 0.0
0.1529999999996239 0.0 0.0
0.1539999999996209 0.0 0.0
0.154999999999618 0.0 0.0
0.1559999999996151 0.0 0.0
0.1569999999996122 0.0 0.0
0.1579999999996093 0.0 0.0
0.1589999999996064 0.0 0.0
0.1599999999996035 0.0 0.0
0.1609999999996005 0.0 0.0
0.1619999999995976 0.0 0.0
0.1629999999995947 0.0 0.0
0.1639999999995918 0.0 0.0
0.1649999999995889 0.0 0.0
0.165999999999586 0.0 0.0
0.1669999999995831 0.0 0.0
0.1679999999995801 0.0 0.0
0.1689999999995772 0.0 0.0
0.1699999999995743 0.0 0.0
0.1709999999995714 0.0 0.0
0.1719999999995685 0.0 0.0
0.1729999999995655 0.0 0.0
0.1739999999995626 0.0 0.0
0.1749999999995597 0.0 0.0
0.1759999999995568 0.0 0.0
0.1769999999995539 0.0 0.0
0.177999999999551 0.0 0.0
0.178999999999548 0.0 0.0
0.1799999999995451 0.0 0.0
0.1809999999995422 0.0 0.0
0.1819999999995393 0.0 0.0
0.1829999999995364 0.0 0.0
0.1839999999995335 0.0 0.0
0.1849999999995305 0.0 0.0
0.1859999999995277 0.0 0.0
0.1869999999995247 0.0 0.0
0.1879999999995218 0.0 0.0
0.1889999999995189 0.0 0.0
0.189999999999516 0.0 0.0
0.1909999999995131 0.0 0.0
0.1919999999995101 0.0 0.0
0.1929999999995072 0.0 0.0
0.1939999999995043 0.0 0.0
0.1949999999995014 0.0 0.0
0.1959999999994985 0.0 0.0
0.1969999999994956 0.0 0.0
0.1979999999994927 0.0 0.0
0.1989999999994897 0.0 0.0
0.1999999999994868 0.0 0.0
0.2009999999994839 0.0 0.0
0.201999999999481 0.0 0.0
0.2029999999994781 0.0 0.0
0.2039999999994752 0.0 0.0
0.2049999999994722 0.0 0.0
0.2059999999994693 0.0 0.0
0.2069999999994664 0.0 0.0
0.2079999999994635 0.0 0.0
0.2089999999994606 0.0 0.0
0.2099999999994577 0.0 0.0
0.2109999999994548 0.0 0.0
0.2119999999994518 0.0 0.0
0.2129999999994489 0.0 0.0
0.213999999999446 0.0 0.0
0.2149999999994431 0.0 0.0
0.2159999999994402 0.0 0.0
0.2169999999994373 0.0 0.0
0.2179999999994343 0.0 0.0
0.2189999999994314 0.0 0.0
0.2199999999994285 0.0 0.0
0.2209999999994256 0.0 0.0
0.2219999999994227 0.0 0.0
0.2229999999994198 0.0 0.0
0.2239999999994168 0.0 0.0
0.2249999999994139 0.0 0.0
0.225999999999411 0.0 0.0
0.2269999999994081 0.0 0.0
0.2279999999994052 0.0 0.0
0.2289999999994023 0.0 0.0
0.2299999999993994 0.0 0.0
0.2309999999993964 0.0 0.0
0.2319999999993935 0.0 0.0
0.2329999999993906 0.0 0.0
0.2339999999993877 0.0 0.0
0.2349999999993848 0.0 0.0
0.2359999999993818 0.0 0.0
0.236999999999379 0.0 0.0
0.237999999999376 0.0 0.0
0.2389999999993731 0.0 0.0
0.2399999999993702 0.0 0.0
0.2409999999993673 0.0 0.0
0.2419999999993644 0.0 0.0
0.2429999999993615 0.0 0.0
0.2439999999993585 0.0 0.0
0.2449999999993556 0.0 0.0
0.2459999999993527 0.0 0.0
0.246999999999351 0.0 0.0
0.2479999999993495 0.0 0.0
0.248999999999348 0.0 0.0
0.2499999999993464 0.0 0.0
0.2509999999993477 0.0 0.0
0.2519999999993489 0.0 0.0
0.2529999999993502 0.0 0.0
0.2539999999993516 0.0 0.0
0.2549999999993542 0.0 0.0
0.2559999999993569 0.0 0.0
0.2569999999993595 0.0 0.0
0.2579999999993621 0.0 0.0
0.2589999999993647 0.0 0.0
0.2599999999993673 0.0 0.0
0.26099999999937 0.0 0.0
0.2619999999993726 0.0 0.0
0.2629999999993753 0.0 0.0
0.2639999999993779 0.0 0.0
0.2649999999993806 0.0 0.0
0.2659999999993832 0.0 0.0
0.2669999999993858 0.0 0.0
0.2679999999993884 0.0 0.0
0.2689999999993911 0.0 0.0
0.2699999999993937 0.0 0.0
0.2709999999993963 0.0 0.0
0.271999999999399 0.0 0.0
0.2729999999994017 0.0 0.0
0.2739999999994043 0.0 0.0
0.2749999999994069 0.0 0.0
0.2759999999994096 0.0 0.0
0.2769999999994122 0.0 0.0
0.2779999999994148 0.0 0.0
0.2789999999994174 0.0 0.0
0.2799999999994201 0.0 0.0
0.2809999999994228 0.0 0.0
0.2819999999994254 0.0 0.0
0.282999999999428 0.0 0.0
0.2839999999994306 0.0 0.0
0.2849999999994333 0.0 0.0
0.2859999999994359 0.0 0.0
0.2869999999994385 0.0 0.0
0.2879999999994411 0.0 0.0
0.2889999999994439 0.0 0.0
0.2899999999994465 0.0 0.0
0.2909999999994491 0.0 0.0
0.2919999999994517 0.0 0.0
0.2929999999994544 0.0 0.0
0.293999999999457 0.0 0.0
0.2949999999994596 0.0 0.0
0.2959999999994622 0.0 0.0
0.2969999999994649 0.0 0.0
0.2979999999994676 0.0 0.0
0.2989999999994702 0.0 0.0
0.2999999999994728 0.0 0.0
0.3009999999994754 0.0 0.0
0.3019999999994781 0.0 0.0
0.3029999999994807 0.0 0.0
0.3039999999994834 0.0 0.0
0.304999999999486 0.0 0.0
0.3059999999994886 0.0 0.0
0.3069999999994913 0.0 0.0
0.3079999999994939 0.0 0.0
0.3089999999994965 0.0 0.0
0.3099999999994992 0.0 0.0
0.3109999999995018 0.0 0.0
0.3119999999995045 0.0 0.0
0.3129999999995071 0.0 0.0
0.3139999999995097 0.0 0.0
0.3149999999995123 0.0 0.0
0.315999999999515 0.0 0.0
0.3169999999995176 0.0 0.0
0.3179999999995203 0.0 0.0
0.3189999999995229 0.0 0.0
0.3199999999995256 0.0 0.0
0.3209999999995282 0.0 0.0
0.3219999999995308 0.0 0.0
0.3229999999995334 0.0 0.0
0.323999999999536 0.0 0.0
0.3249999999995387 0.0 0.0
0.3259999999995414 0.0 0.0
0.326999999999544 0.0 0.0
0.3279999999995466 0.0 0.0
0.3289999999995493 0.0 0.0
0.3299999999995519 0.0 0.0
0.3309999999995545 0.0 0.0
0.3319999999995571 0.0 0.0
0.3329999999995598 0.0 0.0
0.3339999999995625 0.0 0.0
0.3349999999995651 0.0 0.0
0.3359999999995677 0.0 0.0
0.3369999999995703 0.0 0.0
0.337999999999573 0.0 0.0
0.3389999999995756 0.0 0.0
0.3399999999995783 0.0 0.0
0.3409999999995809 0.0 0.0
0.3419999999995835 0.0 0.0
0.3429999999995862 0.0 0.0
0.3439999999995888 0.0 0.0
0.3449999999995914 0.0 0.0
0.345999999999594 0.0 0.0
0.3469999999995967 0.0 0.0
0.3479999999995994 0.0 0.0
0.348999999999602 0.0 0.0
0.3499999999996046 0.0 0.0
0.3509999999996072 0.0 0.0
0.3519999999996099 0.0 0.0
0.3529999999996125 0.0 0.0
0.3539999999996151 0.0 0.0
0.3549999999996178 0.0 0.0
0.3559999999996205 0.0 0.0
0.3569999999996231 0.0 0.0
0.3579999999996257 0.0 0.0
0.3589999999996283 0.0 0.0
0.359999999999631 0.0 0.0
0.3609999999996336 0.0 0.0
0.3619999999996362 0.0 0.0
[...]
POINT_DATA 7930
SCALARS Disp float 2
LOOKUP_TABLE default
0.0 0.001843996844074546
0.0 0.1
0.0 0.1
0.0 0.0
7.560831039783981e-06 0.0
-6.925280531591989e-06 0.00184387318212409
-1.375931575499935e-05 0.0018432609398876248
-2.055541803442745e-05 0.0018426754826705533
-2.751507825699529e-05 0.0018420234436350247
-3.430579644741813e-05 0.0018405864916320501
-4.087228790591641e-05 0.0018386622855133283
-4.7645859382131804e-05 0.001837661145415558
-5.47357609462093e-05 0.001836585328092804
-6.149609075772796e-05 0.001833674231713238
-6.773503100741742e-05 0.0018302791233886261
-7.416811918530832e-05 0.001828857930381179
-8.164574887630054e-05 0.0018276303558549547
-8.891687724896707e-05 0.0018238937552223515
-9.519870662512195e-05 0.0018190179726642014
-0.00010154177662894607 0.0018161511416310504
-0.00010883970423908445 0.0018142071056968408
-0.00011630845345567134 0.0018096273421986835
-0.00012257279140411433 0.001803551415854098
-0.00012873034364878138 0.0017996797091215672
-0.00013622431532762228 0.0017973111244937439
-0.00014381472209128296 0.0017912971523670392
-0.00015001160689593354 0.0017836533995413439
-0.00015600541903110224 0.0017787958594621465
-0.00016342238948557274 0.0017756533502469433
-0.0001712883477688363 0.0017691488029616324
-0.00017765783430142724 0.001759923531263529
-0.00018385319013386735 0.0017537456392714616
-0.0001912516009204539 0.0017494245245011626
-0.00019893656171212487 0.001741860000103394
-0.00020535450062552765 0.0017313865515613226
-0.00021128667705708264 0.0017234464074589119
-0.00021835778752639023 0.0017182255919904643
-0.00022612805777757268 0.0017098480369086263
-0.00023255154166958693 0.0016978879641598198
-0.00023842593790509957 0.0016888807622258183
-0.00024554601543143073 0.0016828500342229386
-0.0002533664642334574 0.0016734562510702393
-0.0002599376705259139 0.0016599956361128714
-0.0002656729778971319 0.0016492695698432536
-0.000272717573478132 0.0016422022606870756
-0.0002806782920970115 0.0016316519771639726
-0.000287145594642803 0.0016165515518565435
-0.00029281256904054953 0.0016044339711985245
-0.000299694002200135 0.0015963010732253436
-0.0003077878390935121 0.0015850033277747528
-0.0003147511403203815 0.0015683379238276066
-0.00032021225598861643 0.001553828326591314
-0.00032699989449655307 0.0015440770621602557
-0.00033514983891042217 0.0015312555456400384
-0.0003420428317043234 0.001512948715898466
-0.00034744363347399235 0.0014966442815994125
-0.0003540479032123744 0.0014852982999268454
-0.0003623613477486642 0.0014715681948921813
-0.0003696350063145984 0.0014511134617710166
-0.00037491126247203577 0.0014326594918466153
-0.00038130571878229136 0.001419636281680011
-0.00038959419316453563 0.001404220380616842
-0.0003972755610915122 0.0013820147746624223
-0.000402831571599362 0.001360635597844038
-0.0004092471671127346 0.0013447149108642177
-0.00041733266245247506 0.0013269339118942406
-0.0004244318058548985 0.0013023518810834874
-0.0004299322676417458 0.0012784779704658998
-0.00043610362235346436 0.0012601517720721499
-0.0004444364526572493 0.0012401119738575444
-0.0004519030290926774 0.0012127014739827747
-0.00045750687679388255 0.0011851094393430588
-0.00046348279614149657 0.0011632845909702733
-0.00047170706891713564 0.0011400178068582695
-0.0004792333729256729 0.0011089162648977458
-0.00048491497973090234 0.0010767405300839688
-0.0004907311546776846 0.001050470124462422
-0.0004986461321758397 0.0010230837457574768
-0.0005064010537857291 0.0009873425357151107
-0.0005121020486405126 0.0009495488649175091
-0.0005176889213214599 0.0009171570911828962
-0.0005258203095463923 0.0008835157063393156
-0.0005333705225941316 0.0008404951724741191
-0.0005389425893103091 0.000793907628752526
-0.0005439531219568532 0.0007516915651078457
-0.000551885225720569 0.0007075745012515536
-0.0005600776022929595 0.000652180256820946
-0.0005664471006873119 0.0005885776286840955
-0.0005718128576452864 0.0005249635891625451
-0.0005771698695511109 0.0004542982499862878
-0.0005828020806301708 0.00035872798022207965
-0.0005792860951282999 0.00023144546683673034
-0.0005490644950814947 0.0
-0.0005012814938482011 0.0
-0.00047235311252703354 0.0
-0.000448703010044752 0.0
-0.0004296625632050485 0.0
-0.00041373029329050393 0.0
-0.0003997058494436511 0.0
-0.0003874311963078149 0.0
-0.00037632227173199975 0.0
-0.0003659370551367095 0.0
-0.0003564330572418252 0.0
-0.0003475169677193097 0.0
-0.0003392284249436839 0.0
-0.0003314444661113955 0.0
-0.0003241373572201813 0.0
-0.0003172344055795099 0.0
-0.00031069902060045044 0.0
-0.00030447524975880285 0.0
-0.00029847048149574573 0.0
-0.0002927743578740439 0.0
-0.0002874030110517318 0.0
-0.00028209749067153897 0.0
-0.0002770643741501876 0.0
-0.0002722373961794596 0.0
-0.0002675590285922283 0.0
-0.0002630551086057616 0.0
-0.00025870901777844027 0.0
-0.00025448718122310046 0.0
-0.0002504077930723036 0.0
-0.0002464677449772764 0.0
-0.00024265210933316952 0.0
-0.00023898390167692465 0.0
-0.00023534551023208925 0.0
-0.0002318592856489388 0.0
-0.00022845424851324967 0.0
-0.00022515844610748503 0.0
-0.00022192238546446736 0.0
-0.0002187852634019153 0.0
-0.0002157234489485297 0.0
-0.00021273471488772057 0.0
-0.0002098161218436535 0.0
-0.00020696867964460131 0.0
-0.00020418726306097558 0.0
-0.0002014666768332277 0.0
-0.00019880417963783343 0.0
-0.0001962089950212828 0.0
-0.00019368137818660602 0.0
-0.0001911793277513358 0.0
-0.00018874686706314966 0.0
-0.00018635848635237617 0.0
-0.0001840216542117014 0.0
-0.0001817299279631524 0.0
-0.00017948412181460852 0.0
-0.00017728552359644762 0.0
-0.00017513141943669574 0.0
-0.00017301921159684926 0.0
-0.00017094238336474603 0.0
-0.00016890626721542004 0.0
-0.00016690844942779046 0.0
-0.0001649445020626257 0.0
-0.00016301709538448634 0.0
-0.00016112249717343654 0.0
-0.00015925718302312142 0.0
-0.00015742289168910992 0.0
-0.00015561896930004114 0.0
-0.00015384201236010614 0.0
-0.00015209227174099287 0.0
-0.00015037290204256064 0.0
-0.00014868561012248825 0.0
-0.0001470129231239589 0.0
-0.00014537878471850552 0.0
-0.00014376688699344525 0.0
-0.0001421807226431397 0.0
-0.000140624357542548 0.0
-0.00013907920903875743 0.0
-0.00013756865426026147 0.0
-0.00013608030672314838 0.0
-0.00013461350245684935 0.0
-0.00013316966055363624 0.0
-0.00013174673043279156 0.0
-0.00013034355463303895 0.0
-0.00012895894998491856 0.0
-0.00012759348246978535 0.0
-0.00012624557971317726 0.0
-0.00012491302291090073 0.0
-0.00012359946087287644 0.0
-0.00012230431046572233 0.0
-0.00012102436292125196 0.0
-0.00011975963497373688 0.0
-0.00011851177548870249 0.0
-0.00011728106881982296 0.0
-0.00011606342637274775 0.0
-0.00011486121231712106 0.0
-0.0001136753455407972 0.0
-0.0001125034784099344 0.0
-0.000111345759464495 0.0
-0.00011020269488509232 0.0
-0.0001090752155870021 0.0
-0.00010796023002318536 0.0
-0.0001068590863550351 0.0
-0.00010577123997576697 0.0
-0.00010469594384069032 0.0
-0.00010363379787156687 0.0
-0.00010258477265326941 0.0
-0.00010154653087238316 0.0
-0.00010051993077162799 0.0
-9.950398480752385e-05 0.0
-9.849896766169337e-05 0.0
-9.750590155514354e-05 0.0
-9.652261792912868e-05 0.0
-9.554862618923167e-05 0.0
-9.458593486610695e-05 0.0
-9.363204621113889e-05 0.0
-9.268818989288232e-05 0.0
-9.175501706246973e-05 0.0
-9.083170688652162e-05 0.0
-8.991767305874269e-05 0.0
-8.90153174320748e-05 0.0
-8.811959759924593e-05 0.0
-8.723387474671061e-05 0.0
-8.63580064449739e-05 0.0
-8.549275857578055e-05 0.0
-8.463659966107154e-05 0.0
-8.37899326275038e-05 0.0
-8.29528820782692e-05 0.0
-8.21243493566972e-05 0.0
-8.130470058302705e-05 0.0
-8.049652078255283e-05 0.0
-7.969245799147913e-05 0.0
-7.889873725629235e-05 0.0
-7.811370646966829e-05 0.0
-7.733553945299537e-05 0.0
-7.656520710999064e-05 0.0
-7.58025628297793e-05 0.0
-7.504705428691194e-05 0.0
-7.429834496379375e-05 0.0
-7.35567520543582e-05 0.0
-7.282202673405083e-05 0.0
-7.209365588067848e-05 0.0
-7.137233348919113e-05 0.0
-7.065727770873486e-05 0.0
-6.994851171166531e-05 0.0
-6.924645137711011e-05 0.0
-6.855017470998019e-05 0.0
-6.785959784888566e-05 0.0
-6.717556801099916e-05 0.0
-6.649779666860985e-05 0.0
-6.582538181088202e-05 0.0
-6.515970065181419e-05 0.0
-6.449968538384749e-05 0.0
-6.384595220096696e-05 0.0
-6.319815714691358e-05 0.0
-6.255604602942848e-05 0.0
-6.191950821821464e-05 0.0
-6.128857778993971e-05 0.0
-6.066349640025781e-05 0.0
-6.004353251044986e-05 0.0
-5.942915782729859e-05 0.0
-5.88209269986903e-05 0.0
-5.8217290497067e-05 0.0
-5.7618841274689095e-05 0.0
-5.7026145948146004e-05 0.0
-5.643842532965263e-05 0.0
-5.5855810492236875e-05 0.0
-5.5278159887680706e-05 0.0
-5.470506105074832e-05 0.0
-5.4136828791850936e-05 0.0
-5.357366443363177e-05 0.0
-5.301480797601399e-05 0.0
-5.246056251163243e-05 0.0
-5.191077275647898e-05 0.0
-5.136553428402398e-05 0.0
-5.082473824639342e-05 0.0
-5.028823374484471e-05 0.0
-4.9755777594919716e-05 0.0
-4.922724869245298e-05 0.0
-4.870290493019874e-05 0.0
-4.818235129251966e-05 0.0
-4.7665872753091515e-05 0.0
-4.715336550499218e-05 0.0
-4.6644661257871704e-05 0.0
-4.6138434670624545e-05 0.0
-4.5637698695989036e-05 0.0
-4.5139070230473214e-05 0.0
-4.4645398704712106e-05 0.0
-4.415387512441695e-05 0.0
-4.36661556343419e-05 0.0
-4.318201081839569e-05 0.0
-4.270147461886016e-05 0.0
-4.2224501158600114e-05 0.0
-4.175092948194751e-05 0.0
-4.1280964006719046e-05 0.0
-4.081465967683694e-05 0.0
-4.035180461187233e-05 0.0
-3.989234970663252e-05 0.0
-3.9436566401891534e-05 0.0
-3.898441626328651e-05 0.0
-3.853566819268168e-05 0.0
-3.809053884289116e-05 0.0
-3.764915376649167e-05 0.0
-3.721144279369019e-05 0.0
-3.677749045923305e-05 0.0
-3.634565231523368e-05 0.0
-3.591830694755593e-05 0.0
-3.54943690294953e-05 0.0
-3.507391271533717e-05 0.0
-3.465756948497986e-05 0.0
-3.4243339747576214e-05 0.0
-3.383263924239216e-05 0.0
-3.3425320890003086e-05 0.0
-3.302128592386269e-05 0.0
-3.262018264429459e-05 0.0
-3.2222093286092715e-05 0.0
-3.182683734144384e-05 0.0
-3.143460653778265e-05 0.0
-3.104514128308491e-05 0.0
-3.065841344754678e-05 0.0
-3.0274467668780213e-05 0.0
-2.9893299382869884e-05 0.0
-2.9514865500258413e-05 0.0
-2.9137885674319063e-05 0.0
-2.8764074807856623e-05 0.0
-2.8392892374876825e-05 0.0
-2.802431787721146e-05 0.0
-2.765887618382432e-05 0.0
-2.729463691207274e-05 0.0
-2.693302760845799e-05 0.0
-2.657405362559156e-05 0.0
-2.6217634518170285e-05 0.0
-2.5863645649148907e-05 0.0
-2.5512512407376257e-05 0.0
-2.5163849090883473e-05 0.0
-2.481777376230753e-05 0.0
-2.4474184926712134e-05 0.0
-2.413321357279221e-05 0.0
-2.3794833644905338e-05 0.0
-2.3458902108814842e-05 0.0
-2.312567524123309e-05 0.0
-2.2795265590201034e-05 0.0
-2.246724674703358e-05 0.0
-2.214173455087021e-05 0.0
-2.1818962637263247e-05 0.0
-2.1498758245371716e-05 0.0
-2.1180920347886413e-05 0.0
-2.086564807108724e-05 0.0
-2.055268957559421e-05 0.0
-2.0242228944987287e-05 0.0
-1.993406953778081e-05 0.0
-1.962812693599314e-05 0.0
-1.9324320678227252e-05 0.0
-1.902265482270597e-05 0.0
-1.8723241334185024e-05 0.0
-1.842591550253741e-05 0.0
-1.8130540070681567e-05 0.0
-1.7837049432098875e-05 0.0
-1.7545535775787955e-05 0.0
-1.7255921181035572e-05 0.0
-1.6968067620109562e-05 0.0
-1.6682105451438584e-05 0.0
-1.639798878187419e-05 0.0
-1.6115648232168637e-05 0.0
-1.5834982276122387e-05 0.0
-1.5556111059889985e-05 0.0
-1.5279033134965336e-05 0.0
-1.5003579100589202e-05 0.0
-1.472999218805311e-05 0.0
-1.4458106502308262e-05 0.0
-1.4187960335464322e-05 0.0
-1.3919616316942617e-05 0.0
-1.3653080972065974e-05 0.0
-1.3388435550334753e-05 0.0
-1.3125602909518223e-05 0.0
-1.2864590789501922e-05 0.0
-1.2605527607854303e-05 0.0
-1.2348395590563094e-05 0.0
-1.209322105221084e-05 0.0
-1.1840029390922012e-05 0.0
-1.1588805377928192e-05 0.0
-1.1339547238310615e-05 0.0
-1.1092339818539722e-05 0.0
-1.0847181719028876e-05 0.0
-1.0604098803316428e-05 0.0
-1.0362457983038182e-05 0.0
-1.012310828304149e-05 0.0
-9.885792692072363e-06 0.0
-9.65043622453754e-06 0.0
-9.417020272050956e-06 0.0
-9.185540620986303e-06 0.0
-8.955940336359227e-06 0.0
-8.728180815828239e-06 0.0
-8.502301930205331e-06 0.0
-8.278068598399657e-06 0.0
-8.05567376995034e-06 0.0
-7.835137787249989e-06 0.0
-7.616235179768687e-06 0.0
-7.398960980697068e-06 0.0
-7.1834871841906205e-06 0.0
-6.969558356423995e-06 0.0
-6.757224232740346e-06 0.0
-6.546437011500956e-06 0.0
-6.3372382084838834e-06 0.0
-6.129505317967548e-06 0.0
-5.923343579265193e-06 0.0
-5.718777659479056e-06 0.0
-5.515614770983852e-06 0.0
-5.31395513887444e-06 0.0
-5.113807824558445e-06 0.0
-4.9151081127745315e-06 0.0
-4.717941600324978e-06 0.0
-4.522280936494883e-06 0.0
-4.3280916426564184e-06 0.0
-4.135374367046849e-06 0.0
-3.9442800287437005e-06 0.0
-3.754630390270897e-06 0.0
-3.5664762901760247e-06 0.0
-3.3798941398983962e-06 0.0
-3.194897851113919e-06 0.0
-3.0113887069591094e-06 0.0
-2.8293949650600244e-06 0.0
-2.6489590863482334e-06 0.0
-2.470105589153166e-06 0.0
-2.292718261859697e-06 0.0
-2.116856487274715e-06 0.0
-1.9424411644790218e-06 0.0
-1.7694625530704024e-06 0.0
-1.5980569795488027e-06 0.0
-1.4281832386094543e-06 0.0
-1.2597255882869187e-06 0.0
-1.0927440900594056e-06 0.0
-9.271829629926662e-07 0.0
-7.629727128572018e-07 0.0
-6.001478445796898e-07 0.0
-4.3860264584023994e-07 0.0
-2.78410402379171e-07 0.0
-1.1955762023484437e-07 0.0
3.804591400939056e-08 0.0
1.9446818262453652e-07 0.0
3.49589993905115e-07 0.0
5.034683307586237e-07 0.0
6.561751847244795e-07 0.0
8.077264405365695e-07 0.0
9.581606422186941e-07 0.0
1.107414480282284e-06 0.0
1.2555138502469223e-06 0.0
1.4025260921488308e-06 0.0
1.5483872364776617e-06 0.0
1.6929871401656139e-06 0.0
1.8366033639825982e-06 0.0
1.978968124186611e-06 0.0
2.120136240150259e-06 0.0
2.2600559275727595e-06 0.0
2.398758638414151e-06 0.0
2.536312417410106e-06 0.0
2.6724697791152973e-06 0.0
2.8072528873323517e-06 0.0
2.9406067356826347e-06 0.0
3.072519794674866e-06 0.0
3.2030709853218954e-06 0.0
3.3321672366449387e-06 0.0
3.4595944128810273e-06 0.0
3.5854351093353096e-06 0.0
3.7096810210717995e-06 0.0
3.83213738677177e-06 0.0
3.952875652389481e-06 0.0
4.071886480460684e-06 0.0
4.189060221443112e-06 0.0
4.304367626833675e-06 0.0
4.41774892405341e-06 0.0
4.529039368180277e-06 0.0
4.638434575792585e-06 0.0
4.7458180099240926e-06 0.0
4.851107954365277e-06 0.0
4.954294136255548e-06 0.0
5.055251940121275e-06 0.0
5.154100934786356e-06 0.0
5.2508796209402965e-06 0.0
5.345662920105507e-06 0.0
5.438205781848639e-06 0.0
5.528384867281084e-06 0.0
5.6164118800738384e-06 0.0
5.702538779395534e-06 0.0
5.786524057361759e-06 0.0
5.868497099731132e-06 0.0
5.94839937135292e-06 0.0
6.026311524080188e-06 0.0
6.102177996098432e-06 0.0
6.1760636616091465e-06 0.0
6.248148007691888e-06 0.0
6.31823638700719e-06 0.0
6.3864900330497584e-06 0.0
6.452914965736349e-06 0.0
6.517674054120403e-06 0.0
6.580805815269417e-06 0.0
6.642334093700682e-06 0.0
6.702240019480411e-06 0.0
6.760518179753927e-06 0.0
6.81751696498045e-06 0.0
6.873025036188963e-06 0.0
6.927128249444033e-06 0.0
6.979923858884048e-06 0.0
7.031291259150616e-06 0.0
7.081586316096849e-06 0.0
7.130688832261563e-06 0.0
7.178584164797223e-06 0.0
7.225305094179636e-06 0.0
7.271018952976005e-06 0.0
7.315585888530555e-06 0.0
7.359069214210499e-06 0.0
7.4014350922537836e-06 0.0
7.4428051246241935e-06 0.0
7.483264975766813e-06 0.0
7.522558278136689e-06 0.0
7.5994522026665504e-06 0.0
7.640169391202928e-06 0.0
7.683017497469249e-06 0.0
7.72788422794881e-06 0.0
7.774564772492164e-06 0.0
7.822865936484773e-06 0.0
7.872393641730059e-06 0.0
7.922559907371297e-06 0.0
7.97269839504336e-06 0.0
8.021850492726198e-06 0.0
8.068713898775895e-06 0.0
8.112117745752575e-06 0.0
8.149674214558285e-06 0.0
8.179999480263983e-06 0.0
8.200466244367773e-06 0.0
8.208093108667852e-06 0.0
8.19986295616874e-06 0.0
8.17494154193623e-06 0.0
8.130637542183027e-06 0.0
8.068128526916364e-06 0.0
7.986551024813297e-06 0.0
7.885692650739295e-06 0.0
7.762877408119914e-06 0.0
7.618137384697119e-06 0.0
7.4395804188449185e-06 0.0
7.217400308775695e-06 0.0
6.933733254739486e-06 0.0
6.579158191583843e-06 0.0
6.157885569302364e-06 0.0
5.684701590212158e-06 0.0
5.182370429919264e-06 0.0
4.659776103863655e-06 0.0
4.097653228116055e-06 0.0
3.4604983395898087e-06 0.0
2.7278990352565686e-06 0.0
1.9371685498552343e-06 0.0
1.1893848014403854e-06 0.0
6.068161864721982e-07 0.0
2.5332603929598977e-07 0.0
8.147454786563518e-08 0.0
1.8508460263142095e-08 0.0
2.453521483559411e-09 0.0
2.67410785086451e-10 0.0
1.386379943825957e-12 0.0
-1.176954154083637e-13 0.0
1.4926926772978312e-13 0.0
-3.155570536427967e-14 0.0
-8.72642873214641e-15 0.0
-4.8879065182192065e-15 0.0
2.554327235955733e-16 0.0
3.5646489560575967e-16 0.0
-4.0839196272760117e-16 0.0
-2.1957197939280166e-16 0.0
-4.538882399197963e-16 0.0
-6.684053591022056e-17 0.0
-5.668280568566434e-17 0.0
-2.1687786067066314e-16 0.0
-2.5653169639008714e-16 0.0
1.222700723117018e-16 0.0
5.00017039121736e-16 0.0
8.604187369582659e-17 0.0
1.7899953359783375e-16 0.0
6.656293676643006e-16 0.0
-1.027303534138219e-16 0.0
-2.3975716559281324e-16 0.0
-5.319317047744185e-16 0.0
-3.134436400546897e-16 0.0
2.862878769185625e-16 0.0
-5.5189428572376197e-17 0.0
-3.311768888800628e-16 0.0
4.94639686905555e-16 0.0
8.300258379928813e-16 0.0
-1.747224408338541e-15 0.0
4.673031631544935e-16 0.0
1.9841196837025613e-15 0.0
-1.663294397270182e-15 0.0
-6.981159580155088e-17 0.0
8.893677402253045e-16 0.0
-1.3629226782394748e-15 0.0
0.0 0.009234165287260027
0.0 0.022109785930461454
0.0 0.040062852071461146
0.0 0.06509563926311522
-1.8753963788921726e-15 0.1
-2.6876209500907505e-15 0.1
3.056286712863365e-14 0.1
-3.218833091137348e-14 0.1
0.0 0.09234095951659475
0.0 0.08526779443703535
0.0 0.07873568783498895
0.0 0.0727032535816563
0.0 0.06713226878992153
0.0 0.061987433310923205
0.0 0.05723615233795883
0.0 0.052848316929522555
0.0 0.048796128449944715
0.0 0.04505391065785002
0.0 0.04159795282712115
0.0 0.03840635724257261
0.0 0.035458901718227936
0.0 0.03273691087333411
0.0 0.03022313773603427
0.0 0.02790165483820826
0.0 0.02575775300196306
0.0 0.023777848352117083
0.0 0.021949395807792337
0.0 0.020260810255956444
0.0 0.018701392223484055
0.0 0.01726126159555008
0.0 0.015931293338331473
0.0 0.014703060345662393
0.0 0.013568780844231595
0.0 0.012521267304020487
0.0 0.01155388318493987
0.0 0.01066050550712064
0.0 0.009835436586323664
0.0 0.009073586882206415
0.0 0.008369561901696637
0.0 0.007722253070990951
0.0 0.007129384519895859
0.0 0.006585335563217857
0.0 0.006086314979809201
0.0 0.005629779197262331
0.0 0.00521184409737495
0.0 0.0048313490525324285
0.0 0.004486242592264819
0.0 0.004171867509690739
0.0 0.003886720760695041
0.0 0.0036288648319506606
0.0 0.003395342830953277
0.0 0.0031856584908696605
0.0 0.0029977866939565117
0.0 0.002829479539216683
0.0 0.0026803100960277916
0.0 0.0025487758235786897
0.0 0.0024329686193452116
0.0 0.0023326429560366563
0.0 0.002247121973005191
0.0 0.002173316131000829
0.0 0.0021110647903487515
0.0 0.0020600016099798757
0.0 0.0020176080478313003
0.0 0.001983754528051689
0.0 0.0019571685018220848
0.0 0.0019368177316052577
0.0 0.0019213246047963095
0.0 0.0019099550975795348
0.0 0.0019015543699690356
0.0 0.0018956658792222063
0.0 0.0018918905517953956
0.0 0.0018885750539172992
0.0 0.0018868518379423886
0.0 0.0018847092334009013
0.0 0.0018831421654371219
0.0 0.0018815932964360565
0.0 0.0018799585209708564
0.0 0.0018782548681568398
0.0 0.00187623766335216
0.0 0.0018740910213379321
0.0 0.00187172831669874
0.0 0.001869260221500095
0.0 0.0018666451747204112
0.0 0.0018640479748711634
0.0 0.0018614200127824794
0.0 0.0018588041356096053
0.0 0.0018562319809351546
0.0 0.001853657827001099
0.0 0.0018511488754289584
0.0 0.00184867090632836
0.0 0.0018463173210241481
4.932283955532954e-06 0.004931566295703871
6.748036125061944e-05 0.0028171831695230527
0.0001131613024522349 0.0017428157578207302
0.00015435900146753987 0.0014229621823402838
2.922481491039569e-05 0.0014160741361496853
1.6314501140813438e-05 0.0022614998696681085
0.00010215153007803625 0.0015779698257612996
1.571583785827249e-05 0.0012786442515403222