# vtk DataFile Version 3.0
Some data
ASCII
DATASET UNSTRUCTURED_GRID
POINTS 7930 float
0.0 0.0 0.0
0.0 10.0 0.0
10.0 10.0 0.0
10.0 0.0 0.0
0.5 0.0 0.0
0.0009999999999981016 0.0 0.0
0.001999999999996203 0.0 0.0
0.002999999999994305 0.0 0.0
0.003999999999992409 0.0 0.0
0.004999999999990531 0.0 0.0
0.005999999999988653 0.0 0.0
0.006999999999986775 0.0 0.0
0.007999999999984898 0.0 0.0
0.008999999999983018 0.0 0.0
0.009999999999981142 0.0 0.0
0.01099999999997926 0.0 0.0
0.01199999999997736 0.0 0.0
0.0129999999999754 0.0 0.0
0.01399999999997343 0.0 0.0
0.01499999999997147 0.0 0.0
0.01599999999996944 0.0 0.0
0.0169999999999673 0.0 0.0
0.01799999999996516 0.0 0.0
0.01899999999996302 0.0 0.0
0.01999999999996084 0.0 0.0
0.02099999999995862 0.0 0.0
0.02199999999995639 0.0 0.0
0.02299999999995417 0.0 0.0
0.02399999999995195 0.0 0.0
0.02499999999994972 0.0 0.0
0.0259999999999475 0.0 0.0
0.02699999999994527 0.0 0.0
0.02799999999994315 0.0 0.0
0.0289999999999411 0.0 0.0
0.02999999999993905 0.0 0.0
0.030999999999937 0.0 0.0
0.03199999999993521 0.0 0.0
0.0329999999999335 0.0 0.0
0.0339999999999318 0.0 0.0
0.03499999999993009 0.0 0.0
0.03599999999992853 0.0 0.0
0.036999999999927 0.0 0.0
0.03799999999992547 0.0 0.0
0.03899999999992394 0.0 0.0
0.03999999999992241 0.0 0.0
0.04099999999992088 0.0 0.0
0.04199999999991934 0.0 0.0
0.04299999999991782 0.0 0.0
0.04399999999991629 0.0 0.0
0.04499999999991475 0.0 0.0
0.04599999999991322 0.0 0.0
0.0469999999999117 0.0 0.0
0.04799999999991016 0.0 0.0
0.04899999999990863 0.0 0.0
0.0499999999999071 0.0 0.0
0.05099999999990557 0.0 0.0
0.05199999999990404 0.0 0.0
0.05299999999990251 0.0 0.0
0.05399999999990097 0.0 0.0
0.05499999999989943 0.0 0.0
0.05599999999989791 0.0 0.0
0.05699999999989638 0.0 0.0
0.05799999999989484 0.0 0.0
0.05899999999989317 0.0 0.0
0.05999999999989129 0.0 0.0
0.06099999999988941 0.0 0.0
0.06199999999988753 0.0 0.0
0.06299999999988531 0.0 0.0
0.06399999999988273 0.0 0.0
0.06499999999988015 0.0 0.0
0.06599999999987759 0.0 0.0
0.0669999999998748 0.0 0.0
0.06799999999987189 0.0 0.0
0.06899999999986897 0.0 0.0
0.06999999999986604 0.0 0.0
0.07099999999986313 0.0 0.0
0.0719999999998602 0.0 0.0
0.07299999999985729 0.0 0.0
0.07399999999985438 0.0 0.0
0.07499999999985145 0.0 0.0
0.07599999999984854 0.0 0.0
0.07699999999984562 0.0 0.0
0.0779999999998427 0.0 0.0
0.07899999999983978 0.0 0.0
0.07999999999983685 0.0 0.0
0.08099999999983394 0.0 0.0
0.08199999999983103 0.0 0.0
0.0829999999998281 0.0 0.0
0.08399999999982519 0.0 0.0
0.08499999999982226 0.0 0.0
0.08599999999981935 0.0 0.0
0.08699999999981643 0.0 0.0
0.0879999999998135 0.0 0.0
0.08899999999981059 0.0 0.0
0.08999999999980766 0.0 0.0
0.09099999999980475 0.0 0.0
0.09199999999980184 0.0 0.0
0.09299999999979891 0.0 0.0
0.093999999999796 0.0 0.0
0.09499999999979307 0.0 0.0
0.09599999999979016 0.0 0.0
0.09699999999978724 0.0 0.0
0.09799999999978432 0.0 0.0
0.0989999999997814 0.0 0.0
0.09999999999977847 0.0 0.0
0.1009999999997756 0.0 0.0
0.1019999999997726 0.0 0.0
0.1029999999997697 0.0 0.0
0.1039999999997668 0.0 0.0
0.1049999999997639 0.0 0.0
0.105999999999761 0.0 0.0
0.106999999999758 0.0 0.0
0.1079999999997551 0.0 0.0
0.1089999999997522 0.0 0.0
0.1099999999997493 0.0 0.0
0.1109999999997464 0.0 0.0
0.1119999999997434 0.0 0.0
0.1129999999997405 0.0 0.0
0.1139999999997376 0.0 0.0
0.1149999999997347 0.0 0.0
0.1159999999997318 0.0 0.0
0.1169999999997288 0.0 0.0
0.1179999999997259 0.0 0.0
0.118999999999723 0.0 0.0
0.1199999999997201 0.0 0.0
0.1209999999997172 0.0 0.0
0.1219999999997143 0.0 0.0
0.1229999999997113 0.0 0.0
0.1239999999997084 0.0 0.0
0.1249999999997055 0.0 0.0
0.1259999999997026 0.0 0.0
0.1269999999996997 0.0 0.0
0.1279999999996967 0.0 0.0
0.1289999999996938 0.0 0.0
0.1299999999996909 0.0 0.0
0.130999999999688 0.0 0.0
0.1319999999996851 0.0 0.0
0.1329999999996822 0.0 0.0
0.1339999999996792 0.0 0.0
0.1349999999996764 0.0 0.0
0.1359999999996734 0.0 0.0
0.1369999999996705 0.0 0.0
0.1379999999996676 0.0 0.0
0.1389999999996647 0.0 0.0
0.1399999999996618 0.0 0.0
0.1409999999996588 0.0 0.0
0.1419999999996559 0.0 0.0
0.142999999999653 0.0 0.0
0.1439999999996501 0.0 0.0
0.1449999999996472 0.0 0.0
0.1459999999996442 0.0 0.0
0.1469999999996414 0.0 0.0
0.1479999999996384 0.0 0.0
0.1489999999996355 0.0 0.0
0.1499999999996326 0.0 0.0
0.1509999999996297 0.0 0.0
0.1519999999996268 0.0 0.0
0.1529999999996239 0.0 0.0
0.1539999999996209 0.0 0.0
0.154999999999618 0.0 0.0
0.1559999999996151 0.0 0.0
0.1569999999996122 0.0 0.0
0.1579999999996093 0.0 0.0
0.1589999999996064 0.0 0.0
0.1599999999996035 0.0 0.0
0.1609999999996005 0.0 0.0
0.1619999999995976 0.0 0.0
0.1629999999995947 0.0 0.0
0.1639999999995918 0.0 0.0
0.1649999999995889 0.0 0.0
0.165999999999586 0.0 0.0
0.1669999999995831 0.0 0.0
0.1679999999995801 0.0 0.0
0.1689999999995772 0.0 0.0
0.1699999999995743 0.0 0.0
0.1709999999995714 0.0 0.0
0.1719999999995685 0.0 0.0
0.1729999999995655 0.0 0.0
0.1739999999995626 0.0 0.0
0.1749999999995597 0.0 0.0
0.1759999999995568 0.0 0.0
0.1769999999995539 0.0 0.0
0.177999999999551 0.0 0.0
0.178999999999548 0.0 0.0
0.1799999999995451 0.0 0.0
0.1809999999995422 0.0 0.0
0.1819999999995393 0.0 0.0
0.1829999999995364 0.0 0.0
0.1839999999995335 0.0 0.0
0.1849999999995305 0.0 0.0
0.1859999999995277 0.0 0.0
0.1869999999995247 0.0 0.0
0.1879999999995218 0.0 0.0
0.1889999999995189 0.0 0.0
0.189999999999516 0.0 0.0
0.1909999999995131 0.0 0.0
0.1919999999995101 0.0 0.0
0.1929999999995072 0.0 0.0
0.1939999999995043 0.0 0.0
0.1949999999995014 0.0 0.0
0.1959999999994985 0.0 0.0
0.1969999999994956 0.0 0.0
0.1979999999994927 0.0 0.0
0.1989999999994897 0.0 0.0
0.1999999999994868 0.0 0.0
0.2009999999994839 0.0 0.0
0.201999999999481 0.0 0.0
0.2029999999994781 0.0 0.0
0.2039999999994752 0.0 0.0
0.2049999999994722 0.0 0.0
0.2059999999994693 0.0 0.0
0.2069999999994664 0.0 0.0
0.2079999999994635 0.0 0.0
0.2089999999994606 0.0 0.0
0.2099999999994577 0.0 0.0
0.2109999999994548 0.0 0.0
0.2119999999994518 0.0 0.0
0.2129999999994489 0.0 0.0
0.213999999999446 0.0 0.0
0.2149999999994431 0.0 0.0
0.2159999999994402 0.0 0.0
0.2169999999994373 0.0 0.0
0.2179999999994343 0.0 0.0
0.2189999999994314 0.0 0.0
0.2199999999994285 0.0 0.0
0.2209999999994256 0.0 0.0
0.2219999999994227 0.0 0.0
0.2229999999994198 0.0 0.0
0.2239999999994168 0.0 0.0
0.2249999999994139 0.0 0.0
0.225999999999411 0.0 0.0
0.2269999999994081 0.0 0.0
0.2279999999994052 0.0 0.0
0.2289999999994023 0.0 0.0
0.2299999999993994 0.0 0.0
0.2309999999993964 0.0 0.0
0.2319999999993935 0.0 0.0
0.2329999999993906 0.0 0.0
0.2339999999993877 0.0 0.0
0.2349999999993848 0.0 0.0
0.2359999999993818 0.0 0.0
0.236999999999379 0.0 0.0
0.237999999999376 0.0 0.0
0.2389999999993731 0.0 0.0
0.2399999999993702 0.0 0.0
0.2409999999993673 0.0 0.0
0.2419999999993644 0.0 0.0
0.2429999999993615 0.0 0.0
0.2439999999993585 0.0 0.0
0.2449999999993556 0.0 0.0
0.2459999999993527 0.0 0.0
0.246999999999351 0.0 0.0
0.2479999999993495 0.0 0.0
0.248999999999348 0.0 0.0
0.2499999999993464 0.0 0.0
0.2509999999993477 0.0 0.0
0.2519999999993489 0.0 0.0
0.2529999999993502 0.0 0.0
0.2539999999993516 0.0 0.0
0.2549999999993542 0.0 0.0
0.2559999999993569 0.0 0.0
0.2569999999993595 0.0 0.0
0.2579999999993621 0.0 0.0
0.2589999999993647 0.0 0.0
0.2599999999993673 0.0 0.0
0.26099999999937 0.0 0.0
0.2619999999993726 0.0 0.0
0.2629999999993753 0.0 0.0
0.2639999999993779 0.0 0.0
0.2649999999993806 0.0 0.0
0.2659999999993832 0.0 0.0
0.2669999999993858 0.0 0.0
0.2679999999993884 0.0 0.0
0.2689999999993911 0.0 0.0
0.2699999999993937 0.0 0.0
0.2709999999993963 0.0 0.0
0.271999999999399 0.0 0.0
0.2729999999994017 0.0 0.0
0.2739999999994043 0.0 0.0
0.2749999999994069 0.0 0.0
0.2759999999994096 0.0 0.0
0.2769999999994122 0.0 0.0
0.2779999999994148 0.0 0.0
0.2789999999994174 0.0 0.0
0.2799999999994201 0.0 0.0
0.2809999999994228 0.0 0.0
0.2819999999994254 0.0 0.0
0.282999999999428 0.0 0.0
0.2839999999994306 0.0 0.0
0.2849999999994333 0.0 0.0
0.2859999999994359 0.0 0.0
0.2869999999994385 0.0 0.0
0.2879999999994411 0.0 0.0
0.2889999999994439 0.0 0.0
0.2899999999994465 0.0 0.0
0.2909999999994491 0.0 0.0
0.2919999999994517 0.0 0.0
0.2929999999994544 0.0 0.0
0.293999999999457 0.0 0.0
0.2949999999994596 0.0 0.0
0.2959999999994622 0.0 0.0
0.2969999999994649 0.0 0.0
0.2979999999994676 0.0 0.0
0.2989999999994702 0.0 0.0
0.2999999999994728 0.0 0.0
0.3009999999994754 0.0 0.0
0.3019999999994781 0.0 0.0
0.3029999999994807 0.0 0.0
0.3039999999994834 0.0 0.0
0.304999999999486 0.0 0.0
0.3059999999994886 0.0 0.0
0.3069999999994913 0.0 0.0
0.3079999999994939 0.0 0.0
0.3089999999994965 0.0 0.0
0.3099999999994992 0.0 0.0
0.3109999999995018 0.0 0.0
0.3119999999995045 0.0 0.0
0.3129999999995071 0.0 0.0
0.3139999999995097 0.0 0.0
0.3149999999995123 0.0 0.0
0.315999999999515 0.0 0.0
0.3169999999995176 0.0 0.0
0.3179999999995203 0.0 0.0
0.3189999999995229 0.0 0.0
0.3199999999995256 0.0 0.0
0.3209999999995282 0.0 0.0
0.3219999999995308 0.0 0.0
0.3229999999995334 0.0 0.0
0.323999999999536 0.0 0.0
0.3249999999995387 0.0 0.0
0.3259999999995414 0.0 0.0
0.326999999999544 0.0 0.0
0.3279999999995466 0.0 0.0
0.3289999999995493 0.0 0.0
0.3299999999995519 0.0 0.0
0.3309999999995545 0.0 0.0
0.3319999999995571 0.0 0.0
0.3329999999995598 0.0 0.0
0.3339999999995625 0.0 0.0
0.3349999999995651 0.0 0.0
0.3359999999995677 0.0 0.0
0.3369999999995703 0.0 0.0
0.337999999999573 0.0 0.0
0.3389999999995756 0.0 0.0
0.3399999999995783 0.0 0.0
0.3409999999995809 0.0 0.0
0.3419999999995835 0.0 0.0
0.3429999999995862 0.0 0.0
0.3439999999995888 0.0 0.0
0.3449999999995914 0.0 0.0
0.345999999999594 0.0 0.0
0.3469999999995967 0.0 0.0
0.3479999999995994 0.0 0.0
0.348999999999602 0.0 0.0
0.3499999999996046 0.0 0.0
0.3509999999996072 0.0 0.0
0.3519999999996099 0.0 0.0
0.3529999999996125 0.0 0.0
0.3539999999996151 0.0 0.0
0.3549999999996178 0.0 0.0
0.3559999999996205 0.0 0.0
0.3569999999996231 0.0 0.0
0.3579999999996257 0.0 0.0
0.3589999999996283 0.0 0.0
0.359999999999631 0.0 0.0
0.3609999999996336 0.0 0.0
0.3619999999996362 0.0 0.0
[...]
POINT_DATA 7930
SCALARS Disp float 2
LOOKUP_TABLE default
0.0 0.00030887578001373883
0.0 0.1
0.0 0.1
0.0 0.0
1.393886172870307e-17 0.0
-6.98874140371846e-06 0.00030795887057299514
-1.373415520987661e-05 0.0003055668327656012
-2.0513239526926635e-05 0.000302634482005315
-2.8001064242146086e-05 0.00029775442141218283
-3.484792138607699e-05 0.0002897085492968789
-4.127165016510776e-05 0.0002798487103775879
-4.778341885431411e-05 0.00027030249659385023
-5.4620289330866254e-05 0.0002589007466950225
-6.159790433534485e-05 0.00024235935215464243
-6.759979544323239e-05 0.00022353070807013402
-7.384552499405137e-05 0.00020330687435326792
-8.176092107184515e-05 0.00017813062360640976
-8.805782613368483e-05 0.00014215110663832
-9.027923613610548e-05 9.299725402833402e-05
-7.798351203018644e-05 0.0
-6.710841447988387e-05 0.0
-5.568435977407561e-05 0.0
-4.889719851971388e-05 0.0
-4.376898269258366e-05 0.0
-3.9862194612287215e-05 0.0
-3.6281247084207275e-05 0.0
-3.3376909787569486e-05 0.0
-3.086562942703631e-05 0.0
-2.8638887075573278e-05 0.0
-2.6711292971941865e-05 0.0
-2.4859842436936085e-05 0.0
-2.3202226611398448e-05 0.0
-2.1694135666983794e-05 0.0
-2.0322447783542934e-05 0.0
-1.906051747133108e-05 0.0
-1.7901223615728057e-05 0.0
-1.6832739040378297e-05 0.0
-1.5849389853012418e-05 0.0
-1.4941537437820968e-05 0.0
-1.4092866044695203e-05 0.0
-1.330021676665864e-05 0.0
-1.256048701132045e-05 0.0
-1.1863835888580109e-05 0.0
-1.1210076850068971e-05 0.0
-1.0591408507940314e-05 0.0
-1.0004928492726565e-05 0.0
-9.445315793520508e-06 0.0
-8.90684904256166e-06 0.0
-8.388981568683755e-06 0.0
-7.891979311995209e-06 0.0
-7.411638909057544e-06 0.0
-6.948794290583262e-06 0.0
-6.499855509462166e-06 0.0
-6.0640447625594e-06 0.0
-5.639925849902146e-06 0.0
-5.2290105588321216e-06 0.0
-4.831381682150769e-06 0.0
-4.446456686621267e-06 0.0
-4.067315326996201e-06 0.0
-3.7045429257807243e-06 0.0
-3.355318315274845e-06 0.0
-3.019670908757349e-06 0.0
-2.696858921026012e-06 0.0
-2.387847067877852e-06 0.0
-2.092340459537025e-06 0.0
-1.8100891007514676e-06 0.0
-1.5417445943450401e-06 0.0
-1.287108721045279e-06 0.0
-1.0463359585613548e-06 0.0
-8.202849336379324e-07 0.0
-6.084258248371799e-07 0.0
-4.10021821307999e-07 0.0
-2.2521037543089056e-07 0.0
-5.416775603808082e-08 0.0
1.0296064989339915e-07 0.0
2.473005327922667e-07 0.0
3.794222456872651e-07 0.0
4.998087421664571e-07 0.0
6.084928381367795e-07 0.0
7.057100145401727e-07 0.0
7.921312392776747e-07 0.0
8.682765871224873e-07 0.0
9.35052438034482e-07 0.0
9.92213894528843e-07 0.0
1.0402932579793175e-06 0.0
1.0804820156939112e-06 0.0
1.1129658634287377e-06 0.0
1.1381646891144383e-06 0.0
1.157226065182457e-06 0.0
1.1701806204447338e-06 0.0
1.1772263926924712e-06 0.0
1.1790844453226546e-06 0.0
1.1761937847981369e-06 0.0
1.169057134477942e-06 0.0
1.1580596274130122e-06 0.0
1.1434553093287791e-06 0.0
1.1259655478760266e-06 0.0
1.1058054401260918e-06 0.0
1.0833686357555264e-06 0.0
1.0589697981323115e-06 0.0
1.0326959688289453e-06 0.0
1.0049982414195883e-06 0.0
9.76042311972461e-07 0.0
9.461252819290365e-07 0.0
9.156607661131669e-07 0.0
8.845724086757874e-07 0.0
8.531660654488552e-07 0.0
8.215868161434156e-07 0.0
7.899809063975007e-07 0.0
7.584887498063356e-07 0.0
7.272568786079833e-07 0.0
6.963563095733456e-07 0.0
6.65905287917964e-07 0.0
6.36032998604609e-07 0.0
6.06761246885943e-07 0.0
5.781505346389327e-07 0.0
5.502715864301412e-07 0.0
5.231591947825441e-07 0.0
4.968512634125687e-07 0.0
4.714032383024713e-07 0.0
4.4681889765279e-07 0.0
4.2309187162774477e-07 0.0
4.002347702951142e-07 0.0
3.7826093004040663e-07 0.0
3.572937989804063e-07 0.0
3.3702348620699445e-07 0.0
3.1767553899413714e-07 0.0
2.991963239946741e-07 0.0
2.8159649203495076e-07 0.0
2.647515301589137e-07 0.0
2.487515405859644e-07 0.0
2.3357912026775142e-07 0.0
2.1913280302965868e-07 0.0
2.0542982844054458e-07 0.0
1.9243230299172602e-07 0.0
1.80140382209996e-07 0.0
1.68516890998975e-07 0.0
1.5753381663401515e-07 0.0
1.4717780732422265e-07 0.0
1.3741827539652194e-07 0.0
1.2819065709978822e-07 0.0
1.1953576588425905e-07 0.0
1.113923355115054e-07 0.0
1.0373820811789072e-07 0.0
9.655019239237934e-08 0.0
8.981205112601445e-08 0.0
8.349554296902417e-08 0.0
7.758343033736674e-08 0.0
7.20468978317156e-08 0.0
6.686768464482417e-08 0.0
6.203802334501744e-08 0.0
5.752885717455332e-08 0.0
5.330505941762325e-08 0.0
4.936228412982673e-08 0.0
4.5698318466683746e-08 0.0
4.2282368751828296e-08 0.0
3.91049205556512e-08 0.0
3.6147758261090563e-08 0.0
3.3393570137105825e-08 0.0
3.083630944985217e-08 0.0
2.845238683278094e-08 0.0
2.627260270444421e-08 0.0
2.4215994439657654e-08 0.0
2.232043534242763e-08 0.0
2.0567423547225434e-08 0.0
1.8937093750017604e-08 0.0
1.744668765977342e-08 0.0
1.6044919146937707e-08 0.0
1.4756671593787917e-08 0.0
1.3570154560234308e-08 0.0
1.2472512932475247e-08 0.0
1.1459634305772666e-08 0.0
1.0523522363640243e-08 0.0
9.659954461494793e-09 0.0
8.864389437358736e-09 0.0
8.130179785149087e-09 0.0
7.456008666577129e-09 0.0
6.835110331283093e-09 0.0
6.262360979071505e-09 0.0
5.735351582023572e-09 0.0
5.251675616110135e-09 0.0
4.807268496142613e-09 0.0
4.397910293578991e-09 0.0
4.022500112477564e-09 0.0
3.678322698674967e-09 0.0
3.3616390140478264e-09 0.0
3.0718704967861314e-09 0.0
2.8068973984808087e-09 0.0
2.563314667275114e-09 0.0
2.339362796848889e-09 0.0
2.1348888749375937e-09 0.0
1.947487576526665e-09 0.0
1.776058516335532e-09 0.0
1.6196553107070537e-09 0.0
1.4761184574939873e-09 0.0
1.344768792135028e-09 0.0
1.2248975470514812e-09 0.0
1.1153540502418388e-09 0.0
1.0151777417087215e-09 0.0
9.240860104638204e-10 0.0
8.408587700463694e-10 0.0
7.646671669472799e-10 0.0
6.954411884633679e-10 0.0
6.321157701263769e-10 0.0
5.745149615466766e-10 0.0
5.219830043600413e-10 0.0
4.739557630345462e-10 0.0
4.30373867071869e-10 0.0
3.907799271898834e-10 0.0
3.546587613280694e-10 0.0
3.218442887863033e-10 0.0
2.9200010574036607e-10 0.0
2.6481654222806983e-10 0.0
2.400788604209254e-10 0.0
2.1762522572276716e-10 0.0
1.9726155720888377e-10 0.0
1.7872564613839868e-10 0.0
1.6188754735289586e-10 0.0
1.4662321484132226e-10 0.0
1.327141405471661e-10 0.0
1.2013366396514315e-10 0.0
1.0870208015177453e-10 0.0
9.834511931921052e-11 0.0
8.896430064498546e-11 0.0
8.044848349957556e-11 0.0
7.27439125648719e-11 0.0
6.576048897674117e-11 0.0
5.942525270248511e-11 0.0
5.368825895554063e-11 0.0
4.8491097553934414e-11 0.0
4.380201565538417e-11 0.0
3.955473639196517e-11 0.0
3.57093591997675e-11 0.0
3.223146843281924e-11 0.0
2.9072663278112044e-11 0.0
2.622648345702127e-11 0.0
2.3660291999912283e-11 0.0
2.1334140948229045e-11 0.0
1.9235216195668637e-11 0.0
1.7342788034391584e-11 0.0
1.563021978630072e-11 0.0
1.4082511441451147e-11 0.0
1.2688064361357213e-11 0.0
1.142872586478605e-11 0.0
1.029097099905149e-11 0.0
9.265802852065864e-12 0.0
8.342487363903908e-12 0.0
7.506001203504222e-12 0.0
6.753149125336184e-12 0.0
6.076509860808317e-12 0.0
5.464304559720966e-12 0.0
4.914690297211036e-12 0.0
4.419278421885454e-12 0.0
3.972853556834361e-12 0.0
3.5715954977687426e-12 0.0
3.209608048657144e-12 0.0
2.883764190343107e-12 0.0
2.5916820340640134e-12 0.0
2.327779701728525e-12 0.0
2.0901045544218143e-12 0.0
1.876300444424557e-12 0.0
1.6844323566529566e-12 0.0
1.5120633801485646e-12 0.0
1.3572006169788133e-12 0.0
1.217906137227453e-12 0.0
1.0927811840094963e-12 0.0
9.803453887652456e-13 0.0
8.795529447462515e-13 0.0
7.889303061820345e-13 0.0
7.073939661853235e-13 0.0
6.342197293293598e-13 0.0
5.685746529206858e-13 0.0
5.095386888049543e-13 0.0
4.571810049399101e-13 0.0
4.091586877052625e-13 0.0
3.6656690676683536e-13 0.0
3.282839085851352e-13 0.0
2.940172224066045e-13 0.0
2.6327265289368585e-13 0.0
2.3567456665685824e-13 0.0
2.109834451170124e-13 0.0
1.888582929522046e-13 0.0
1.6899979991130161e-13 0.0
1.5122376144626014e-13 0.0
1.3523968668046244e-13 0.0
1.2098154506760207e-13 0.0
1.082563259557752e-13 0.0
9.681231213788624e-14 0.0
8.657068304978802e-14 0.0
7.738866832314396e-14 0.0
6.917013711772843e-14 0.0
6.18331237680403e-14 0.0
5.525904966917063e-14 0.0
4.9383210688309125e-14 0.0
4.4128288674881576e-14 0.0
3.94179234685388e-14 0.0
3.5191975110776105e-14 0.0
3.143774326641909e-14 0.0
2.807539261658357e-14 0.0
2.5069505652788715e-14 0.0
2.2380241062354427e-14 0.0
1.9977131672301673e-14 0.0
1.7830434746265656e-14 0.0
1.591217952325979e-14 0.0
1.4199796227894178e-14 0.0
1.2667817633026458e-14 0.0
1.1301772229276991e-14 0.0
1.0081769187378058e-14 0.0
8.992727987440534e-15 0.0
8.021317868623685e-15 0.0
7.154107119346745e-15 0.0
6.379754538714457e-15 0.0
5.688550364666012e-15 0.0
5.070326486230689e-15 0.0
4.519726285729546e-15 0.0
4.029439761234648e-15 0.0
3.591708504647777e-15 0.0
3.200833222620361e-15 0.0
2.85228370686876e-15 0.0
2.5411758599593508e-15 0.0
2.2637482017658554e-15 0.0
2.017411339045332e-15 0.0
1.798136910142686e-15 0.0
1.6026016803247884e-15 0.0
1.4273394928362738e-15 0.0
1.2713678565654238e-15 0.0
1.1327371119748205e-15 0.0
1.0085746481018962e-15 0.0
8.981357392690535e-16 0.0
8.001950413732786e-16 0.0
7.125001080951158e-16 0.0
6.348036038095142e-16 0.0
5.655772295747995e-16 0.0
5.03934587669885e-16 0.0
4.492944665124333e-16 0.0
4.0052129110116784e-16 0.0
3.571170908237808e-16 0.0
3.184976540460288e-16 0.0
2.841818226389339e-16 0.0
2.5364071986922006e-16 0.0
2.2646913255946204e-16 0.0
2.0228879264438058e-16 0.0
1.8076313696447128e-16 0.0
1.6167785175783713e-16 0.0
1.4472072433366712e-16 0.0
1.2966085628625616e-16 0.0
1.1626916917611719e-16 0.0
1.043729962836939e-16 0.0
9.382460004753026e-17 0.0
8.451706746089198e-17 0.0
7.618489185491175e-17 0.0
6.881364553139304e-17 0.0
6.225043610613156e-17 0.0
5.63998999020493e-17 0.0
5.123395632583678e-17 0.0
4.6670941778012564e-17 0.0
4.2587679123366416e-17 0.0
3.8966096497537904e-17 0.0
3.574034742582726e-17 0.0
3.288503094395765e-17 0.0
3.037196175322332e-17 0.0
2.812920064117463e-17 0.0
2.6148219724090697e-17 0.0
2.4389300700631928e-17 0.0
2.2826036374548837e-17 0.0
2.1451310671413193e-17 0.0
2.0240471085797852e-17 0.0
1.9172452354934443e-17 0.0
1.8232522819932177e-17 0.0
1.7408601212731984e-17 0.0
1.6683067928656754e-17 0.0
1.6044119004242387e-17 0.0
1.5483513866076192e-17 0.0
1.4989636311440418e-17 0.0
1.455458757797685e-17 0.0
1.417105333342665e-17 0.0
1.3829696208705109e-17 0.0
1.3526607525018487e-17 0.0
1.3254586377537213e-17 0.0
1.3005509112361236e-17 0.0
1.2781712091039476e-17 0.0
1.2574966379044663e-17 0.0
1.2388866444827847e-17 0.0
1.2224724421305844e-17 0.0
1.2082815321953287e-17 0.0
1.1954743942269504e-17 0.0
1.1849908924146342e-17 0.0
1.176101931245852e-17 0.0
1.16858642697055e-17 0.0
1.1623809305981995e-17 0.0
1.1572551001599422e-17 0.0
1.1531247494950794e-17 0.0
1.1491147170198189e-17 0.0
1.1454712286070907e-17 0.0
1.1423512827331895e-17 0.0
1.1388984896435654e-17 0.0
1.13525320497312e-17 0.0
1.131920646307156e-17 0.0
1.1281458539328501e-17 0.0
1.1243387853119629e-17 0.0
1.1203515638658913e-17 0.0
1.1161745267914539e-17 0.0
1.1126134799832799e-17 0.0
1.1085657219644092e-17 0.0
1.1039742250892419e-17 0.0
1.0993915731394213e-17 0.0
1.0950128276991459e-17 0.0
1.0916460761487057e-17 0.0
1.089094055390414e-17 0.0
1.0862500636565136e-17 0.0
1.0837248569196597e-17 0.0
1.0813483830854736e-17 0.0
1.07879589855186e-17 0.0
1.0757187895574941e-17 0.0
1.0728685296181032e-17 0.0
1.0706457457442915e-17 0.0
1.0678050686689992e-17 0.0
1.064712955138221e-17 0.0
1.0617027651963029e-17 0.0
1.058602060739148e-17 0.0
1.0562604903093482e-17 0.0
1.0543750963202867e-17 0.0
1.0522145910645116e-17 0.0
1.051213022137059e-17 0.0
1.0500651442119938e-17 0.0
1.0494901454070367e-17 0.0
1.0484855046401112e-17 0.0
1.0475937475994395e-17 0.0
1.0466203193974984e-17 0.0
1.0458517365236953e-17 0.0
1.0446885148383564e-17 0.0
1.0450211518607802e-17 0.0
1.0455524537868064e-17 0.0
1.0471541674154641e-17 0.0
1.0490950772150981e-17 0.0
1.051804464239901e-17 0.0
1.0548087283228467e-17 0.0
1.0588874769987537e-17 0.0
1.0634833096477956e-17 0.0
1.0681485116632677e-17 0.0
1.0739547579316876e-17 0.0
1.0797022416727439e-17 0.0
1.0852895113002585e-17 0.0
1.0906741050235273e-17 0.0
1.0958516707407292e-17 0.0
1.1007516912382676e-17 0.0
1.1061500791044254e-17 0.0
1.1111922354950602e-17 0.0
1.1159446079970948e-17 0.0
1.121117961311134e-17 0.0
1.125963054772596e-17 0.0
1.1307276435928138e-17 0.0
1.135389881474401e-17 0.0
1.1405080949792311e-17 0.0
1.1456691647784837e-17 0.0
1.1503199455708688e-17 0.0
1.1549919359079824e-17 0.0
1.159783982823486e-17 0.0
1.1653103728596836e-17 0.0
1.1706940544376697e-17 0.0
1.1762234974251898e-17 0.0
1.1820621555851888e-17 0.0
1.1890895896560014e-17 0.0
1.1963979584826415e-17 0.0
1.2040652977295718e-17 0.0
1.2121461619926529e-17 0.0
1.2201990531430688e-17 0.0
1.2281411810143173e-17 0.0
1.236616143040326e-17 0.0
1.2453179387517247e-17 0.0
1.2540007223288391e-17 0.0
1.2631089223010184e-17 0.0
1.2726276819856718e-17 0.0
1.2821099707516201e-17 0.0
1.2915608172435167e-17 0.0
1.3009242263002876e-17 0.0
1.310284242426873e-17 0.0
1.3194318742061393e-17 0.0
1.3285941612202853e-17 0.0
1.3384449464910383e-17 0.0
1.3485423641758766e-17 0.0
1.358048296333792e-17 0.0
1.3670905103931846e-17 0.0
1.375584881880557e-17 0.0
1.38314215403872e-17 0.0
1.3896789954057367e-17 0.0
1.3957111268867395e-17 0.0
1.4005383984151747e-17 0.0
1.404820720846256e-17 0.0
1.4080509120052158e-17 0.0
1.4103820827894606e-17 0.0
1.4117725604655624e-17 0.0
1.4125509843840126e-17 0.0
1.4121627275115233e-17 0.0
1.411027928638096e-17 0.0
1.409702991032163e-17 0.0
1.4076791091484457e-17 0.0
1.4054378808504645e-17 0.0
1.4039839407918352e-17 0.0
1.4022668257082736e-17 0.0
1.400596857242625e-17 0.0
1.398993445450399e-17 0.0
1.39738589628703e-17 0.0
1.395855849692424e-17 0.0
1.3921742438994737e-17 0.0
1.3904034125599005e-17 0.0
1.3888520986784483e-17 0.0
1.3868598211658106e-17 0.0
1.3858351086166349e-17 0.0
1.3840247740279154e-17 0.0
1.3826410192899068e-17 0.0
1.3815761851201659e-17 0.0
1.3800762815225438e-17 0.0
1.3792319943319772e-17 0.0
1.380644829679306e-17 0.0
1.3844038211756941e-17 0.0
1.392078399406816e-17 0.0
1.4037752320533778e-17 0.0
1.42213404002022e-17 0.0
1.444829063408135e-17 0.0
1.4688986398132916e-17 0.0
1.4933153633681734e-17 0.0
1.511333352693073e-17 0.0
1.5247406105006265e-17 0.0
1.532365854749142e-17 0.0
1.5430066849931534e-17 0.0
1.5610093227633285e-17 0.0
1.5734640160365335e-17 0.0
1.588000881861326e-17 0.0
1.5948983850794838e-17 0.0
1.583364487132602e-17 0.0
1.6129756082874943e-17 0.0
1.6347800570116767e-17 0.0
1.5900295211946208e-17 0.0
1.5463819042915005e-17 0.0
1.5950181764451437e-17 0.0
1.6583460151688707e-17 0.0
1.7997572712130052e-17 0.0
1.7616286213163056e-17 0.0
1.7729522109260175e-17 0.0
1.7996192405597522e-17 0.0
2.001860375897118e-17 0.0
1.9867531438391873e-17 0.0
2.181313739541291e-17 0.0
2.279013274763893e-17 0.0
2.3132768478568194e-17 0.0
2.7310659744971403e-17 0.0
2.5856446473677536e-17 0.0
2.803751628741961e-17 0.0
2.4261970410607156e-17 0.0
2.345070284703007e-17 0.0
3.6345072641054827e-17 0.0
3.2972944763244596e-17 0.0
3.27760456915306e-17 0.0
3.836072938711091e-17 0.0
3.274755246547397e-17 0.0
4.1092794985218344e-17 0.0
4.0460458232132173e-17 0.0
4.63826828234837e-17 0.0
4.780666600158617e-17 0.0
4.093656786826425e-17 0.0
5.517633019951726e-17 0.0
4.739927508526341e-17 0.0
5.312452831198091e-17 0.0
3.889225126242193e-17 0.0
6.026896118943307e-17 0.0
4.7024234106363014e-17 0.0
4.47163327781717e-17 0.0
5.051980935137464e-17 0.0
5.174316143255406e-17 0.0
3.9185722242296456e-17 0.0
3.788726834497463e-17 0.0
3.176766113604247e-17 0.0
2.7318171488301067e-17 0.0
2.500459105826288e-17 0.0
2.3690836396877648e-17 0.0
3.219180922499083e-17 0.0
1.794013304351071e-17 0.0
2.2073656862141754e-17 0.0
1.7357544110339417e-17 0.0
2.9339216312349504e-18 0.0
9.906424212672089e-18 0.0
6.066632670145377e-19 0.0
0.0 0.009234165287256561
0.0 0.022109785930449422
0.0 0.040062852071542185
0.0 0.06509563926325325
-2.5654154839425377e-17 0.1
-2.8193620250550294e-17 0.1
3.0550571380677278e-18 0.1
-7.507129856295103e-17 0.1
0.0 0.0923409595166243
0.0 0.08526779443703442
0.0 0.07873568783499686
0.0 0.07270325358170392
0.0 0.06713226878993286
0.0 0.06198743331091098
0.0 0.057236152337946315
0.0 0.0528483169295147
0.0 0.04879612844994364
0.0 0.04505391065784639
0.0 0.041597952827127395
0.0 0.03840635724257019
0.0 0.035458901718219915
0.0 0.03273691087332483
0.0 0.030223137736026497
0.0 0.02790165483820302
0.0 0.025757753001960537
0.0 0.02377784835211414
0.0 0.021949395807803102
0.0 0.020260810255894313
0.0 0.018701392223652146
0.0 0.017261261595034532
0.0 0.015931293336680388
0.0 0.014703060372940016
0.0 0.013568780782904416
0.0 0.012521267482860969
0.0 0.011553883413523562
0.0 0.010660499143843073
0.0 0.009835453922831206
0.0 0.009073520329637607
0.0 0.00836987060878865
0.0 0.007720046303381288
0.0 0.007119930012359909
0.0 0.006565719473503332
0.0 0.006053903138567288
0.0 0.0055812379915637705
0.0 0.005144729226039183
0.0 0.004741611057488178
0.0 0.004369329279130269
0.0 0.004025525044342833
0.0 0.003708020011724174
0.0 0.0034148024235081975
0.0 0.003144014422040202
0.0 0.0028939402701387462
0.0 0.0026629954680384062
0.0 0.0024497166914238372
0.0 0.0022527526851829527
0.0 0.0020708558875523015
0.0 0.0019028757847463153
0.0 0.0017477554425848825
0.0 0.0016045345315657514
0.0 0.0014723744756546257
0.0 0.0013505292818899025
0.0 0.0012383735628267965
0.0 0.001135449810079078
0.0 0.0010412466036881583
0.0 0.0009551790901212803
0.0 0.0008767042615209972
0.0 0.0008052972792477036
0.0 0.0007403771619956209
0.0 0.0006814527436199691
0.0 0.0006281762444147231
0.0 0.0005801674726084203
0.0 0.0005370787755659204
0.0 0.0004987419892099655
0.0 0.00046461120751650466
0.0 0.00043473564792004173
0.0 0.000408894620379711
0.0 0.00038687616283181316
0.0 0.00036853505668099016
0.0 0.0003533923735504875
0.0 0.00034142497046851534
0.0 0.000332284012401749
0.0 0.00032563636087990324
0.0 0.00032117862452157896
0.0 0.000318442406204681
0.0 0.00031689677303683284
0.0 0.00031612474843128194
0.0 0.0003156853597451269
0.0 0.00031489316632748754
0.0 0.00031390170766301434
0.0 0.0003125357151336791
0.0 0.00031093992456018686
2.9074498674077975e-17 0.004927245132661821
9.059920217200549e-18 0.0027738745973897292
1.103435061920203e-10 0.001535933486036185
4.870082473591571e-07 0.0009053581137049746
2.287927034319402e-16 0.0014042041053079633
1.5127272718588285e-17 0.0022597849426047177
9.662619349150689e-06 0.0005107612696706658
1.1929925773522702e-17 0.001286773473408842
3.7082337963137433e-09 0.0007827830903661668
2.289564958197429e-12 0.0007701206764100593
1.0895535702421198e-15 0.0007097590365109807
9.570497302895104e-18 0.0006767768962500101
-9.8889626134337e-18 0.014973736461409808
1.383949523079114e-17 0.0006657294860763364
1.4032348252854043e-06 0.000444574169711519
8.890355057757174e-08 0.00043920864735622495
1.789406587318e-17 0.0011704180815624448
1.6391541034096277e-05 0.0003239527493984141
3.4735667633014156e-09 0.0003917651999430326
6.394319757253031e-11 0.00042324462659599214
1.0128831539946355e-12 0.0004004930541823832
1.4844077988102328e-14 0.000377277370103704
2.2058019597001743e-16 0.0003779922736688539
1.4370147637421407e-17 0.0006414990043901083
1.454997288419802e-17 0.00035247014978887647
1.0853182964594657e-17 0.0003911916516413835
-4.7024603658362606e-18 0.048473971154332295
4.9702662445343825e-06 0.00025354833688854156
2.4859907427671964e-06 0.00024191076654822625
1.1365532285947902e-17 0.00033400753026386606
1.3069860869233198e-17 0.00039557321739699074
3.792209656249981e-17 0.007989497114757224
4.976563762634935e-18 0.003711834662427572
1.0362082884360768e-06 0.00022193763003745118
2.855649102070337e-07 0.00023132446841034627
6.134038546031342e-08 0.00022204144295141212
1.2088525154207841e-08 0.00020086801488447122
2.0833481891136936e-09 0.00019930887152793214
2.421053051230621e-10 0.00022296029740994757
2.7246152985751848e-11 0.00021839892944706114
3.4906742401587327e-12 0.00020043056568067125
3.085094133752358e-13 0.00022085093684885826
2.505872096164444e-05 0.00023732753303336388