# vtk DataFile Version 3.0
Some data
ASCII
DATASET UNSTRUCTURED_GRID
POINTS 7930 float
0.0 0.0 0.0
0.0 10.0 0.0
10.0 10.0 0.0
10.0 0.0 0.0
0.5 0.0 0.0
0.0009999999999981016 0.0 0.0
0.001999999999996203 0.0 0.0
0.002999999999994305 0.0 0.0
0.003999999999992409 0.0 0.0
0.004999999999990531 0.0 0.0
0.005999999999988653 0.0 0.0
0.006999999999986775 0.0 0.0
0.007999999999984898 0.0 0.0
0.008999999999983018 0.0 0.0
0.009999999999981142 0.0 0.0
0.01099999999997926 0.0 0.0
0.01199999999997736 0.0 0.0
0.0129999999999754 0.0 0.0
0.01399999999997343 0.0 0.0
0.01499999999997147 0.0 0.0
0.01599999999996944 0.0 0.0
0.0169999999999673 0.0 0.0
0.01799999999996516 0.0 0.0
0.01899999999996302 0.0 0.0
0.01999999999996084 0.0 0.0
0.02099999999995862 0.0 0.0
0.02199999999995639 0.0 0.0
0.02299999999995417 0.0 0.0
0.02399999999995195 0.0 0.0
0.02499999999994972 0.0 0.0
0.0259999999999475 0.0 0.0
0.02699999999994527 0.0 0.0
0.02799999999994315 0.0 0.0
0.0289999999999411 0.0 0.0
0.02999999999993905 0.0 0.0
0.030999999999937 0.0 0.0
0.03199999999993521 0.0 0.0
0.0329999999999335 0.0 0.0
0.0339999999999318 0.0 0.0
0.03499999999993009 0.0 0.0
0.03599999999992853 0.0 0.0
0.036999999999927 0.0 0.0
0.03799999999992547 0.0 0.0
0.03899999999992394 0.0 0.0
0.03999999999992241 0.0 0.0
0.04099999999992088 0.0 0.0
0.04199999999991934 0.0 0.0
0.04299999999991782 0.0 0.0
0.04399999999991629 0.0 0.0
0.04499999999991475 0.0 0.0
0.04599999999991322 0.0 0.0
0.0469999999999117 0.0 0.0
0.04799999999991016 0.0 0.0
0.04899999999990863 0.0 0.0
0.0499999999999071 0.0 0.0
0.05099999999990557 0.0 0.0
0.05199999999990404 0.0 0.0
0.05299999999990251 0.0 0.0
0.05399999999990097 0.0 0.0
0.05499999999989943 0.0 0.0
0.05599999999989791 0.0 0.0
0.05699999999989638 0.0 0.0
0.05799999999989484 0.0 0.0
0.05899999999989317 0.0 0.0
0.05999999999989129 0.0 0.0
0.06099999999988941 0.0 0.0
0.06199999999988753 0.0 0.0
0.06299999999988531 0.0 0.0
0.06399999999988273 0.0 0.0
0.06499999999988015 0.0 0.0
0.06599999999987759 0.0 0.0
0.0669999999998748 0.0 0.0
0.06799999999987189 0.0 0.0
0.06899999999986897 0.0 0.0
0.06999999999986604 0.0 0.0
0.07099999999986313 0.0 0.0
0.0719999999998602 0.0 0.0
0.07299999999985729 0.0 0.0
0.07399999999985438 0.0 0.0
0.07499999999985145 0.0 0.0
0.07599999999984854 0.0 0.0
0.07699999999984562 0.0 0.0
0.0779999999998427 0.0 0.0
0.07899999999983978 0.0 0.0
0.07999999999983685 0.0 0.0
0.08099999999983394 0.0 0.0
0.08199999999983103 0.0 0.0
0.0829999999998281 0.0 0.0
0.08399999999982519 0.0 0.0
0.08499999999982226 0.0 0.0
0.08599999999981935 0.0 0.0
0.08699999999981643 0.0 0.0
0.0879999999998135 0.0 0.0
0.08899999999981059 0.0 0.0
0.08999999999980766 0.0 0.0
0.09099999999980475 0.0 0.0
0.09199999999980184 0.0 0.0
0.09299999999979891 0.0 0.0
0.093999999999796 0.0 0.0
0.09499999999979307 0.0 0.0
0.09599999999979016 0.0 0.0
0.09699999999978724 0.0 0.0
0.09799999999978432 0.0 0.0
0.0989999999997814 0.0 0.0
0.09999999999977847 0.0 0.0
0.1009999999997756 0.0 0.0
0.1019999999997726 0.0 0.0
0.1029999999997697 0.0 0.0
0.1039999999997668 0.0 0.0
0.1049999999997639 0.0 0.0
0.105999999999761 0.0 0.0
0.106999999999758 0.0 0.0
0.1079999999997551 0.0 0.0
0.1089999999997522 0.0 0.0
0.1099999999997493 0.0 0.0
0.1109999999997464 0.0 0.0
0.1119999999997434 0.0 0.0
0.1129999999997405 0.0 0.0
0.1139999999997376 0.0 0.0
0.1149999999997347 0.0 0.0
0.1159999999997318 0.0 0.0
0.1169999999997288 0.0 0.0
0.1179999999997259 0.0 0.0
0.118999999999723 0.0 0.0
0.1199999999997201 0.0 0.0
0.1209999999997172 0.0 0.0
0.1219999999997143 0.0 0.0
0.1229999999997113 0.0 0.0
0.1239999999997084 0.0 0.0
0.1249999999997055 0.0 0.0
0.1259999999997026 0.0 0.0
0.1269999999996997 0.0 0.0
0.1279999999996967 0.0 0.0
0.1289999999996938 0.0 0.0
0.1299999999996909 0.0 0.0
0.130999999999688 0.0 0.0
0.1319999999996851 0.0 0.0
0.1329999999996822 0.0 0.0
0.1339999999996792 0.0 0.0
0.1349999999996764 0.0 0.0
0.1359999999996734 0.0 0.0
0.1369999999996705 0.0 0.0
0.1379999999996676 0.0 0.0
0.1389999999996647 0.0 0.0
0.1399999999996618 0.0 0.0
0.1409999999996588 0.0 0.0
0.1419999999996559 0.0 0.0
0.142999999999653 0.0 0.0
0.1439999999996501 0.0 0.0
0.1449999999996472 0.0 0.0
0.1459999999996442 0.0 0.0
0.1469999999996414 0.0 0.0
0.1479999999996384 0.0 0.0
0.1489999999996355 0.0 0.0
0.1499999999996326 0.0 0.0
0.1509999999996297 0.0 0.0
0.1519999999996268 0.0 0.0
0.1529999999996239 0.0 0.0
0.1539999999996209 0.0 0.0
0.154999999999618 0.0 0.0
0.1559999999996151 0.0 0.0
0.1569999999996122 0.0 0.0
0.1579999999996093 0.0 0.0
0.1589999999996064 0.0 0.0
0.1599999999996035 0.0 0.0
0.1609999999996005 0.0 0.0
0.1619999999995976 0.0 0.0
0.1629999999995947 0.0 0.0
0.1639999999995918 0.0 0.0
0.1649999999995889 0.0 0.0
0.165999999999586 0.0 0.0
0.1669999999995831 0.0 0.0
0.1679999999995801 0.0 0.0
0.1689999999995772 0.0 0.0
0.1699999999995743 0.0 0.0
0.1709999999995714 0.0 0.0
0.1719999999995685 0.0 0.0
0.1729999999995655 0.0 0.0
0.1739999999995626 0.0 0.0
0.1749999999995597 0.0 0.0
0.1759999999995568 0.0 0.0
0.1769999999995539 0.0 0.0
0.177999999999551 0.0 0.0
0.178999999999548 0.0 0.0
0.1799999999995451 0.0 0.0
0.1809999999995422 0.0 0.0
0.1819999999995393 0.0 0.0
0.1829999999995364 0.0 0.0
0.1839999999995335 0.0 0.0
0.1849999999995305 0.0 0.0
0.1859999999995277 0.0 0.0
0.1869999999995247 0.0 0.0
0.1879999999995218 0.0 0.0
0.1889999999995189 0.0 0.0
0.189999999999516 0.0 0.0
0.1909999999995131 0.0 0.0
0.1919999999995101 0.0 0.0
0.1929999999995072 0.0 0.0
0.1939999999995043 0.0 0.0
0.1949999999995014 0.0 0.0
0.1959999999994985 0.0 0.0
0.1969999999994956 0.0 0.0
0.1979999999994927 0.0 0.0
0.1989999999994897 0.0 0.0
0.1999999999994868 0.0 0.0
0.2009999999994839 0.0 0.0
0.201999999999481 0.0 0.0
0.2029999999994781 0.0 0.0
0.2039999999994752 0.0 0.0
0.2049999999994722 0.0 0.0
0.2059999999994693 0.0 0.0
0.2069999999994664 0.0 0.0
0.2079999999994635 0.0 0.0
0.2089999999994606 0.0 0.0
0.2099999999994577 0.0 0.0
0.2109999999994548 0.0 0.0
0.2119999999994518 0.0 0.0
0.2129999999994489 0.0 0.0
0.213999999999446 0.0 0.0
0.2149999999994431 0.0 0.0
0.2159999999994402 0.0 0.0
0.2169999999994373 0.0 0.0
0.2179999999994343 0.0 0.0
0.2189999999994314 0.0 0.0
0.2199999999994285 0.0 0.0
0.2209999999994256 0.0 0.0
0.2219999999994227 0.0 0.0
0.2229999999994198 0.0 0.0
0.2239999999994168 0.0 0.0
0.2249999999994139 0.0 0.0
0.225999999999411 0.0 0.0
0.2269999999994081 0.0 0.0
0.2279999999994052 0.0 0.0
0.2289999999994023 0.0 0.0
0.2299999999993994 0.0 0.0
0.2309999999993964 0.0 0.0
0.2319999999993935 0.0 0.0
0.2329999999993906 0.0 0.0
0.2339999999993877 0.0 0.0
0.2349999999993848 0.0 0.0
0.2359999999993818 0.0 0.0
0.236999999999379 0.0 0.0
0.237999999999376 0.0 0.0
0.2389999999993731 0.0 0.0
0.2399999999993702 0.0 0.0
0.2409999999993673 0.0 0.0
0.2419999999993644 0.0 0.0
0.2429999999993615 0.0 0.0
0.2439999999993585 0.0 0.0
0.2449999999993556 0.0 0.0
0.2459999999993527 0.0 0.0
0.246999999999351 0.0 0.0
0.2479999999993495 0.0 0.0
0.248999999999348 0.0 0.0
0.2499999999993464 0.0 0.0
0.2509999999993477 0.0 0.0
0.2519999999993489 0.0 0.0
0.2529999999993502 0.0 0.0
0.2539999999993516 0.0 0.0
0.2549999999993542 0.0 0.0
0.2559999999993569 0.0 0.0
0.2569999999993595 0.0 0.0
0.2579999999993621 0.0 0.0
0.2589999999993647 0.0 0.0
0.2599999999993673 0.0 0.0
0.26099999999937 0.0 0.0
0.2619999999993726 0.0 0.0
0.2629999999993753 0.0 0.0
0.2639999999993779 0.0 0.0
0.2649999999993806 0.0 0.0
0.2659999999993832 0.0 0.0
0.2669999999993858 0.0 0.0
0.2679999999993884 0.0 0.0
0.2689999999993911 0.0 0.0
0.2699999999993937 0.0 0.0
0.2709999999993963 0.0 0.0
0.271999999999399 0.0 0.0
0.2729999999994017 0.0 0.0
0.2739999999994043 0.0 0.0
0.2749999999994069 0.0 0.0
0.2759999999994096 0.0 0.0
0.2769999999994122 0.0 0.0
0.2779999999994148 0.0 0.0
0.2789999999994174 0.0 0.0
0.2799999999994201 0.0 0.0
0.2809999999994228 0.0 0.0
0.2819999999994254 0.0 0.0
0.282999999999428 0.0 0.0
0.2839999999994306 0.0 0.0
0.2849999999994333 0.0 0.0
0.2859999999994359 0.0 0.0
0.2869999999994385 0.0 0.0
0.2879999999994411 0.0 0.0
0.2889999999994439 0.0 0.0
0.2899999999994465 0.0 0.0
0.2909999999994491 0.0 0.0
0.2919999999994517 0.0 0.0
0.2929999999994544 0.0 0.0
0.293999999999457 0.0 0.0
0.2949999999994596 0.0 0.0
0.2959999999994622 0.0 0.0
0.2969999999994649 0.0 0.0
0.2979999999994676 0.0 0.0
0.2989999999994702 0.0 0.0
0.2999999999994728 0.0 0.0
0.3009999999994754 0.0 0.0
0.3019999999994781 0.0 0.0
0.3029999999994807 0.0 0.0
0.3039999999994834 0.0 0.0
0.304999999999486 0.0 0.0
0.3059999999994886 0.0 0.0
0.3069999999994913 0.0 0.0
0.3079999999994939 0.0 0.0
0.3089999999994965 0.0 0.0
0.3099999999994992 0.0 0.0
0.3109999999995018 0.0 0.0
0.3119999999995045 0.0 0.0
0.3129999999995071 0.0 0.0
0.3139999999995097 0.0 0.0
0.3149999999995123 0.0 0.0
0.315999999999515 0.0 0.0
0.3169999999995176 0.0 0.0
0.3179999999995203 0.0 0.0
0.3189999999995229 0.0 0.0
0.3199999999995256 0.0 0.0
0.3209999999995282 0.0 0.0
0.3219999999995308 0.0 0.0
0.3229999999995334 0.0 0.0
0.323999999999536 0.0 0.0
0.3249999999995387 0.0 0.0
0.3259999999995414 0.0 0.0
0.326999999999544 0.0 0.0
0.3279999999995466 0.0 0.0
0.3289999999995493 0.0 0.0
0.3299999999995519 0.0 0.0
0.3309999999995545 0.0 0.0
0.3319999999995571 0.0 0.0
0.3329999999995598 0.0 0.0
0.3339999999995625 0.0 0.0
0.3349999999995651 0.0 0.0
0.3359999999995677 0.0 0.0
0.3369999999995703 0.0 0.0
0.337999999999573 0.0 0.0
0.3389999999995756 0.0 0.0
0.3399999999995783 0.0 0.0
0.3409999999995809 0.0 0.0
0.3419999999995835 0.0 0.0
0.3429999999995862 0.0 0.0
0.3439999999995888 0.0 0.0
0.3449999999995914 0.0 0.0
0.345999999999594 0.0 0.0
0.3469999999995967 0.0 0.0
0.3479999999995994 0.0 0.0
0.348999999999602 0.0 0.0
0.3499999999996046 0.0 0.0
0.3509999999996072 0.0 0.0
0.3519999999996099 0.0 0.0
0.3529999999996125 0.0 0.0
0.3539999999996151 0.0 0.0
0.3549999999996178 0.0 0.0
0.3559999999996205 0.0 0.0
0.3569999999996231 0.0 0.0
0.3579999999996257 0.0 0.0
0.3589999999996283 0.0 0.0
0.359999999999631 0.0 0.0
0.3609999999996336 0.0 0.0
0.3619999999996362 0.0 0.0
[...]
POINT_DATA 7930
SCALARS Disp float 2
LOOKUP_TABLE default
0.0 0.0003710586885694829
0.0 0.1
0.0 0.1
0.0 0.0
1.4095115317194772e-17 0.0
-6.7686109763754845e-06 0.0003704776856512408
-1.3569418291956855e-05 0.0003691090315052219
-2.0464992641050245e-05 0.00036640164672093004
-2.7447051284890624e-05 0.0003612364191596006
-3.371053256605442e-05 0.00035498588853885105
-4.027192868108015e-05 0.00034947541246118367
-4.764860698324626e-05 0.00034237371347507577
-5.474969597574971e-05 0.00033153259769114505
-6.130304239187971e-05 0.0003187467916314496
-6.776584191391882e-05 0.0003067469954933228
-7.517982951974638e-05 0.00029255757212519887
-8.303550384500662e-05 0.00027297528141465005
-8.927573401158213e-05 0.0002497609009056226
-9.507987622928468e-05 0.0002260076094824977
-0.00010257885514233706 0.00019722318078004282
-0.00010776680095951468 0.00015807347739819604
-0.00011149436621502857 0.00010230731523493242
-9.986827488053023e-05 0.0
-7.996433254041501e-05 0.0
-7.052153431271338e-05 0.0
-6.250251313004551e-05 0.0
-5.6771190023628555e-05 0.0
-5.2127380241436533e-05 0.0
-4.820171731086853e-05 0.0
-4.495872257638802e-05 0.0
-4.1875917272550716e-05 0.0
-3.919784389148121e-05 0.0
-3.67984673477315e-05 0.0
-3.464079284505494e-05 0.0
-3.265818246001405e-05 0.0
-3.083846607017193e-05 0.0
-2.9151292495978328e-05 0.0
-2.7590261249485788e-05 0.0
-2.613473110383702e-05 0.0
-2.4759176032179408e-05 0.0
-2.346589135704788e-05 0.0
-2.2251550346671075e-05 0.0
-2.1102631870992302e-05 0.0
-2.002339016593758e-05 0.0
-1.9004252332718e-05 0.0
-1.804396939296452e-05 0.0
-1.713640813802649e-05 0.0
-1.6274782167543625e-05 0.0
-1.5458209671530263e-05 0.0
-1.4688956686795577e-05 0.0
-1.396081390949989e-05 0.0
-1.3274288287670974e-05 0.0
-1.2623985594277815e-05 0.0
-1.200604372850726e-05 0.0
-1.1417186997058249e-05 0.0
-1.0857943858131275e-05 0.0
-1.0326243802121838e-05 0.0
-9.819148876307995e-06 0.0
-9.323418400423173e-06 0.0
-8.85378423033637e-06 0.0
-8.403319874910994e-06 0.0
-7.9698767803868e-06 0.0
-7.550334183114168e-06 0.0
-7.145214020110091e-06 0.0
-6.752183883377858e-06 0.0
-6.369131061462188e-06 0.0
-5.996878038738463e-06 0.0
-5.634380244728184e-06 0.0
-5.280348046394488e-06 0.0
-4.93557274428727e-06 0.0
-4.5996701605159095e-06 0.0
-4.2714523690968786e-06 0.0
-3.951187905221808e-06 0.0
-3.6395500198241503e-06 0.0
-3.336693652902544e-06 0.0
-3.04174089922052e-06 0.0
-2.7551880126868463e-06 0.0
-2.47707448298003e-06 0.0
-2.2073212176269016e-06 0.0
-1.9468879156796955e-06 0.0
-1.6958060131530735e-06 0.0
-1.4541245431002361e-06 0.0
-1.221717935249376e-06 0.0
-9.991298323393425e-07 0.0
-7.868463444151682e-07 0.0
-5.842418952088553e-07 0.0
-3.916646901738432e-07 0.0
-2.0934019760207077e-07 0.0
-3.647290890489023e-08 0.0
1.265923215759569e-07 0.0
2.792571581278013e-07 0.0
4.2187481821633403e-07 0.0
5.545784866282443e-07 0.0
6.776076421475928e-07 0.0
7.911200738123612e-07 0.0
8.948381006628173e-07 0.0
9.899141339450367e-07 0.0
1.0762378598263581e-06 0.0
1.1542186078411054e-06 0.0
1.224188659631824e-06 0.0
1.285666763903324e-06 0.0
1.3395027735870314e-06 0.0
1.3856132031635757e-06 0.0
1.424491321575153e-06 0.0
1.4576075705639342e-06 0.0
1.4838503465333385e-06 0.0
1.5042810961956263e-06 0.0
1.5190474067421756e-06 0.0
1.5283963228461201e-06 0.0
1.5325097785456316e-06 0.0
1.5321638509680478e-06 0.0
1.527233340955661e-06 0.0
1.5185149515193213e-06 0.0
1.5061853581381393e-06 0.0
1.490505375244185e-06 0.0
1.4716423432697063e-06 0.0
1.4499949100474597e-06 0.0
1.4259113899678655e-06 0.0
1.399612631930469e-06 0.0
1.3712417390777197e-06 0.0
1.3411784056682767e-06 0.0
1.3096328227504737e-06 0.0
1.276861610731134e-06 0.0
1.242955426191047e-06 0.0
1.2081232596570986e-06 0.0
1.172888410425502e-06 0.0
1.1370504236868134e-06 0.0
1.100828952228987e-06 0.0
1.064427717158452e-06 0.0
1.0279953274340153e-06 0.0
9.916055592547461e-07 0.0
9.554024046187498e-07 0.0
9.195018922043807e-07 0.0
8.839815727594223e-07 0.0
8.489327201718518e-07 0.0
8.144256906388518e-07 0.0
7.805395104410783e-07 0.0
7.473157199121886e-07 0.0
7.148289355296783e-07 0.0
6.831367514206456e-07 0.0
6.521992604316208e-07 0.0
6.221472826233779e-07 0.0
5.929595422948007e-07 0.0
5.646548701547962e-07 0.0
5.372473193662139e-07 0.0
5.107608033896742e-07 0.0
4.85187328751916e-07 0.0
4.605403480480518e-07 0.0
4.3680270363653987e-07 0.0
4.1397170309497513e-07 0.0
3.920689950268318e-07 0.0
3.710594734986905e-07 0.0
3.5088300921708437e-07 0.0
3.3155793485203675e-07 0.0
3.131115912953252e-07 0.0
2.954808765793677e-07 0.0
2.786647910353006e-07 0.0
2.626294396426672e-07 0.0
2.473397151213149e-07 0.0
2.3279816636669879e-07 0.0
2.1893725233437916e-07 0.0
2.0590626069302405e-07 0.0
1.9339370596703502e-07 0.0
1.815754877535223e-07 0.0
1.7039332615749913e-07 0.0
1.5977508087573112e-07 0.0
1.4982107790266405e-07 0.0
1.402998998247264e-07 0.0
1.31346213441115e-07 0.0
1.2291708351846757e-07 0.0
1.1495890308287044e-07 0.0
1.0746201767052092e-07 0.0
1.0039348912909855e-07 0.0
9.374042040075948e-08 0.0
8.748681059262874e-08 0.0
8.160290822978834e-08 0.0
7.608975109217637e-08 0.0
7.091391602279177e-08 0.0
6.604972296913086e-08 0.0
6.148906751935494e-08 0.0
5.722235509266397e-08 0.0
5.322810782948171e-08 0.0
4.948255902798362e-08 0.0
4.598327090999124e-08 0.0
4.271570655914035e-08 0.0
3.965654686504615e-08 0.0
3.680567426568581e-08 0.0
3.4151008655231424e-08 0.0
3.1669150248500506e-08 0.0
2.934897676698133e-08 0.0
2.719251722579001e-08 0.0
2.518246080173938e-08 0.0
2.3312209143536583e-08 0.0
2.157621229618013e-08 0.0
1.9957285742682183e-08 0.0
1.8451380003171387e-08 0.0
1.705399346718841e-08 0.0
1.575608550927918e-08 0.0
1.4550122387869187e-08 0.0
1.3435070781046755e-08 0.0
1.2400142330874775e-08 0.0
1.1438140029029696e-08 0.0
1.054970336183816e-08 0.0
9.724695906593912e-09 0.0
8.962320303549052e-09 0.0
8.256358844124396e-09 0.0
7.601381537707945e-09 0.0
6.997620916444958e-09 0.0
6.440631330406176e-09 0.0
5.925042758559323e-09 0.0
5.449522293109778e-09 0.0
5.010644872815197e-09 0.0
4.605102153370695e-09 0.0
4.230702542153193e-09 0.0
3.885852426221483e-09 0.0
3.568494752199132e-09 0.0
3.2755455837614732e-09 0.0
3.005646655088812e-09 0.0
2.7574583615175644e-09 0.0
2.5282483441341357e-09 0.0
2.3179223724773578e-09 0.0
2.1241931741768214e-09 0.0
1.946214797810955e-09 0.0
1.7827756061383582e-09 0.0
1.6324096287179221e-09 0.0
1.4944937794702245e-09 0.0
1.367805840612103e-09 0.0
1.2513595192559172e-09 0.0
1.1445020518723307e-09 0.0
1.0464249170074375e-09 0.0
9.56730359736116e-10 0.0
8.744283507804139e-10 0.0
7.989483842593152e-10 0.0
7.297937920710053e-10 0.0
6.662065552979986e-10 0.0
6.081522533780646e-10 0.0
5.551258121968385e-10 0.0
5.064671355601634e-10 0.0
4.620009373713999e-10 0.0
4.2139745243496736e-10 0.0
3.8420339400972507e-10 0.0
3.5017541913277825e-10 0.0
3.1913100307591854e-10 0.0
2.907531661041603e-10 0.0
2.6480442770367325e-10 0.0
2.4113607317556863e-10 0.0
2.1955734139526226e-10 0.0
1.9978254510704435e-10 0.0
1.8176771063277724e-10 0.0
1.653777368757923e-10 0.0
1.503788758930581e-10 0.0
1.3674898983496727e-10 0.0
1.2431948676046435e-10 0.0
1.129889121838831e-10 0.0
1.026842148542404e-10 0.0
9.328227171114581e-11 0.0
8.472160289215897e-11 0.0
7.695682258449161e-11 0.0
6.986403312546433e-11 0.0
6.340426716506451e-11 0.0
5.7527629558727496e-11 0.0
5.2193289357282986e-11 0.0
4.734702427026975e-11 0.0
4.2944157760853366e-11 0.0
3.894031416935422e-11 0.0
3.5303913765830876e-11 0.0
3.200042099603795e-11 0.0
2.9005968158465156e-11 0.0
2.6284573843486506e-11 0.0
2.3809947437694855e-11 0.0
2.1565033714637196e-11 0.0
1.9529350006911768e-11 0.0
1.7679315129542076e-11 0.0
1.6019234484748458e-11 0.0
1.448372891189499e-11 0.0
1.3105891088126218e-11 0.0
1.1854615771563513e-11 0.0
1.0722596937395654e-11 0.0
9.696417855884664e-12 0.0
8.76578947355057e-12 0.0
7.924432701686088e-12 0.0
7.16272147351863e-12 0.0
6.472127691101742e-12 0.0
5.847573247735377e-12 0.0
5.280444732236373e-12 0.0
4.769219591546583e-12 0.0
4.3082200062023e-12 0.0
3.889629228753e-12 0.0
3.511258305478714e-12 0.0
3.1686899139704002e-12 0.0
2.859020967668169e-12 0.0
2.5797709565101866e-12 0.0
2.3271218640200023e-12 0.0
2.0990680014161953e-12 0.0
1.89311533069311e-12 0.0
1.706741709115345e-12 0.0
1.5379527423671702e-12 0.0
1.386471972655021e-12 0.0
1.2495176127594802e-12 0.0
1.1259032866868533e-12 0.0
1.014265405633248e-12 0.0
9.135571019624631e-13 0.0
8.227398419247449e-13 0.0
7.408187764965434e-13 0.0
6.66998048646613e-13 0.0
6.003444054906827e-13 0.0
5.403474768489378e-13 0.0
4.862655305276926e-13 0.0
4.3754055304774847e-13 0.0
3.936738376430985e-13 0.0
3.54152066479629e-13 0.0
3.1853890998484355e-13 0.0
2.864596996963749e-13 0.0
2.575119632775518e-13 0.0
2.3149327571877954e-13 0.0
2.0811144267498404e-13 0.0
1.8704936714150116e-13 0.0
1.6807397598626085e-13 0.0
1.51002403975246e-13 0.0
1.3562994145428642e-13 0.0
1.2180057171373825e-13 0.0
1.0940887198979847e-13 0.0
9.828090595031259e-14 0.0
8.827177312920329e-14 0.0
7.922597342340214e-14 0.0
7.110534324962692e-14 0.0
6.382425822996139e-14 0.0
5.724956653258892e-14 0.0
5.13510283236722e-14 0.0
4.607365387905246e-14 0.0
4.1309503986916013e-14 0.0
3.705128858021896e-14 0.0
3.322515956282066e-14 0.0
2.978938635910981e-14 0.0
2.671717788294565e-14 0.0
2.3951935610980587e-14 0.0
2.147016772316813e-14 0.0
1.924283394463663e-14 0.0
1.724680511052454e-14 0.0
1.5455004684180472e-14 0.0
1.3847005337963726e-14 0.0
1.2403688945849479e-14 0.0
1.110760877854619e-14 0.0
9.948071185388229e-15 0.0
8.908365518558851e-15 0.0
7.976555304429913e-15 0.0
7.140356681940671e-15 0.0
6.390894233267074e-15 0.0
5.720189423643969e-15 0.0
5.122725512060643e-15 0.0
4.58384665495411e-15 0.0
4.103001889872381e-15 0.0
3.6710763870336664e-15 0.0
3.2827325489760683e-15 0.0
2.936939567736879e-15 0.0
2.6291061693533058e-15 0.0
2.351586987575706e-15 0.0
2.1038249644226842e-15 0.0
1.8815349337609677e-15 0.0
1.682842437736864e-15 0.0
1.5063333136834828e-15 0.0
1.3471289011973982e-15 0.0
1.2050216612957047e-15 0.0
1.077823533626446e-15 0.0
9.63556440361021e-16 0.0
8.618027965956814e-16 0.0
7.710647752101388e-16 0.0
6.8968232579352e-16 0.0
6.17020012845085e-16 0.0
5.520998172760076e-16 0.0
4.94038764870077e-16 0.0
4.422230010179466e-16 0.0
3.959455291268598e-16 0.0
3.5457001581725463e-16 0.0
3.176121814930747e-16 0.0
2.845396015987108e-16 0.0
2.5506098920405504e-16 0.0
2.287672257072469e-16 0.0
2.0529282091413494e-16 0.0
1.8434791075439501e-16 0.0
1.656532163097824e-16 0.0
1.4900354830772487e-16 0.0
1.3412927479620477e-16 0.0
1.207578694308092e-16 0.0
1.0886545685099549e-16 0.0
9.831242336528619e-17 0.0
8.883608777702476e-17 0.0
8.032646805208806e-17 0.0
7.278981064105096e-17 0.0
6.607756235614346e-17 0.0
6.006378965720973e-17 0.0
5.4692159941521433e-17 0.0
4.989914717332526e-17 0.0
4.560687077779549e-17 0.0
4.17983811780246e-17 0.0
3.842129471628423e-17 0.0
3.539286151572897e-17 0.0
3.269501095776648e-17 0.0
3.0290896167324746e-17 0.0
2.813542983415259e-17 0.0
2.6230097370175146e-17 0.0
2.4530046606895954e-17 0.0
2.3016805037745473e-17 0.0
2.1661655057610495e-17 0.0
2.0442320190641335e-17 0.0
1.934354050782594e-17 0.0
1.835598345405269e-17 0.0
1.7476157059236426e-17 0.0
1.6688875969503642e-17 0.0
1.5982518627946133e-17 0.0
1.5347615755083835e-17 0.0
1.4782942157374623e-17 0.0
1.4279431129751016e-17 0.0
1.3828593631523178e-17 0.0
1.3427641629921482e-17 0.0
1.3081205743891342e-17 0.0
1.2766543884559466e-17 0.0
1.2484391227786849e-17 0.0
1.2237804083024366e-17 0.0
1.201822458249713e-17 0.0
1.183483586902316e-17 0.0
1.1676119231879205e-17 0.0
1.1531452182789275e-17 0.0
1.1415451009952714e-17 0.0
1.1308254904288173e-17 0.0
1.1221301812152658e-17 0.0
1.1137620370107394e-17 0.0
1.1066330318313193e-17 0.0
1.100032809033278e-17 0.0
1.0949366775408897e-17 0.0
1.0898884198480014e-17 0.0
1.0865146729704953e-17 0.0
1.0834214284204225e-17 0.0
1.0815343693524236e-17 0.0
1.0795128423836556e-17 0.0
1.0782202521488566e-17 0.0
1.0771251385042e-17 0.0
1.0767755532141774e-17 0.0
1.076825465303464e-17 0.0
1.0769107990501521e-17 0.0
1.0775181150012003e-17 0.0
1.0787588335020157e-17 0.0
1.0801386067474551e-17 0.0
1.0817892036242576e-17 0.0
1.0842126565805639e-17 0.0
1.0865584687802224e-17 0.0
1.0895610129386532e-17 0.0
1.0931024000813555e-17 0.0
1.0973470802308851e-17 0.0
1.1018865668146457e-17 0.0
1.1068331297912777e-17 0.0
1.1124879205103232e-17 0.0
1.1186569639826362e-17 0.0
1.1255042434022428e-17 0.0
1.1326488700028986e-17 0.0
1.1394399572744153e-17 0.0
1.1459865169029464e-17 0.0
1.152853714645799e-17 0.0
1.1596879411410466e-17 0.0
1.1659090045636249e-17 0.0
1.171639385650447e-17 0.0
1.1772223998158834e-17 0.0
1.1828022739941268e-17 0.0
1.1876099566894922e-17 0.0
1.1924968179287279e-17 0.0
1.1967032463364358e-17 0.0
1.2004173084534597e-17 0.0
1.203617034935277e-17 0.0
1.2068903104580325e-17 0.0
1.2099350892440572e-17 0.0
1.2124507194813382e-17 0.0
1.214729890791227e-17 0.0
1.2170934929022835e-17 0.0
1.2188760833319972e-17 0.0
1.2204667525868773e-17 0.0
1.2216670946337604e-17 0.0
1.2231851076445786e-17 0.0
1.2250917641505558e-17 0.0
1.2269730551214354e-17 0.0
1.2292889503348433e-17 0.0
1.2315267766223081e-17 0.0
1.2340638383542803e-17 0.0
1.2367574428548532e-17 0.0
1.2398010870133446e-17 0.0
1.2432148038848825e-17 0.0
1.2466034362085908e-17 0.0
1.2517313781933727e-17 0.0
1.2585778858632429e-17 0.0
1.266136184797013e-17 0.0
1.2741660604684847e-17 0.0
1.2831259369544833e-17 0.0
1.2923541614374864e-17 0.0
1.3020961067679447e-17 0.0
1.3116467473599518e-17 0.0
1.321662062714787e-17 0.0
1.3315086251418753e-17 0.0
1.3412679668515201e-17 0.0
1.3508029413970875e-17 0.0
1.3604923502047187e-17 0.0
1.369680810992357e-17 0.0
1.3785178846111055e-17 0.0
1.387048419855016e-17 0.0
1.3949906608599397e-17 0.0
1.402704321783409e-17 0.0
1.416064709193647e-17 0.0
1.4224110460206488e-17 0.0
1.4292531502428788e-17 0.0
1.4358069688607555e-17 0.0
1.4425679977658925e-17 0.0
1.447836860825241e-17 0.0
1.452783480413682e-17 0.0
1.4570371013476913e-17 0.0
1.4595765446396068e-17 0.0
1.4623061980438e-17 0.0
1.4657750319607374e-17 0.0
1.4680413015282666e-17 0.0
1.4695915796292147e-17 0.0
1.4693351733177115e-17 0.0
1.4666913801733995e-17 0.0
1.4598631936682115e-17 0.0
1.4553137534443395e-17 0.0
1.4553607177427612e-17 0.0
1.4629559602102965e-17 0.0
1.475638847293742e-17 0.0
1.487307434439905e-17 0.0
1.4909318190122268e-17 0.0
1.49147662415293e-17 0.0
1.4861778426728264e-17 0.0
1.4745472650908596e-17 0.0
1.49367063722763e-17 0.0
1.5452886766340716e-17 0.0
1.5509751264672113e-17 0.0
1.532162976907366e-17 0.0
1.5869116796356587e-17 0.0
1.6770338127145326e-17 0.0
1.7452843723492722e-17 0.0
1.8682736647591917e-17 0.0
1.8301108104857716e-17 0.0
1.8084355960454205e-17 0.0
1.709107554133384e-17 0.0
1.8035909708043185e-17 0.0
1.9049638939868457e-17 0.0
2.174408117401827e-17 0.0
2.5301960556825782e-17 0.0
2.484909309833385e-17 0.0
2.5096213007901445e-17 0.0
2.4436903615664552e-17 0.0
2.3245459106878975e-17 0.0
2.8296534175116064e-17 0.0
2.2884233501858247e-17 0.0
2.5126243656431596e-17 0.0
3.7406448846317697e-17 0.0
3.665234101255884e-17 0.0
3.5237046581003875e-17 0.0
3.752557133105815e-17 0.0
2.8392233382470015e-17 0.0
4.2258126731458296e-17 0.0
4.2072874233882015e-17 0.0
4.280688287383384e-17 0.0
4.9323829343201615e-17 0.0
3.636249904385206e-17 0.0
5.478138508818778e-17 0.0
5.457034636286552e-17 0.0
5.590114821785476e-17 0.0
3.353889324490101e-17 0.0
6.554797705883269e-17 0.0
4.533897581830004e-17 0.0
3.8895671126544036e-17 0.0
5.3126223944826724e-17 0.0
5.324342636959781e-17 0.0
3.4877237431443597e-17 0.0
3.805631763169426e-17 0.0
2.9306716404733534e-17 0.0
2.972471539665169e-17 0.0
2.24057025209564e-17 0.0
2.1649250177066838e-17 0.0
3.873066929250299e-17 0.0
1.3095509447767826e-17 0.0
2.6245738402539137e-17 0.0
2.0316396174638856e-17 0.0
-3.710898111718881e-18 0.0
1.2627358586741486e-17 0.0
-1.1899041567940237e-18 0.0
0.0 0.009234165287256789
0.0 0.02210978593044937
0.0 0.04006285207154098
0.0 0.06509563926325095
-2.665139190845678e-17 0.1
-3.095395513007851e-17 0.1
4.150716237172714e-17 0.1
-1.1474718636581383e-16 0.1
0.0 0.0923409595166247
0.0 0.08526779443703322
0.0 0.07873568783499538
0.0 0.07270325358170361
0.0 0.06713226878993396
0.0 0.06198743331091199
0.0 0.05723615233794644
0.0 0.05284831692951611
0.0 0.0487961284499429
0.0 0.045053910657846405
0.0 0.04159795282712743
0.0 0.03840635724257014
0.0 0.035458901718220505
0.0 0.03273691087332514
0.0 0.030223137736026588
0.0 0.02790165483820275
0.0 0.025757753001960603
0.0 0.023777848352114477
0.0 0.021949395807803137
0.0 0.020260810255894417
0.0 0.01870139222365239
0.0 0.017261261595034414
0.0 0.015931293336680426
0.0 0.014703060372940004
0.0 0.013568780782904345
0.0 0.012521267482860974
0.0 0.011553883413523524
0.0 0.010660499143843063
0.0 0.00983545392283124
0.0 0.009073520329637767
0.0 0.008369870608788754
0.0 0.007720046303381327
0.0 0.0071199300123599134
0.0 0.006565719473503327
0.0 0.006053903138567311
0.0 0.005581237991563707
0.0 0.005144729226039155
0.0 0.0047416110574881685
0.0 0.004369329279130283
0.0 0.004025525044342847
0.0 0.003708020011724121
0.0 0.0034148024235071198
0.0 0.0031440144220676387
0.0 0.002893940270754081
0.0 0.002662995483428509
0.0 0.0024497169212908477
0.0 0.00225275458365573
0.0 0.0020708688291069077
0.0 0.0019029322994225262
0.0 0.0017479489036790015
0.0 0.001605082753086068
0.0 0.0014737140674475255
0.0 0.0013531776359298772
0.0 0.0012428784122274549
0.0 0.0011422532585276637
0.0 0.0010504528397109517
0.0 0.0009666674170861975
0.0 0.0008903508708274287
0.0 0.0008211272999204628
0.0 0.0007585955864799432
0.0 0.0007023063835809592
0.0 0.0006519025805077793
0.0 0.0006069263545123618
0.0 0.0005669411579194007
0.0 0.0005318504338714728
0.0 0.0005009754877492256
0.0 0.00047445485412020194
0.0 0.00045201133478467795
0.0 0.00043332979049894065
0.0 0.0004182438926134554
0.0 0.0004061700540596289
0.0 0.0003970822843343084
0.0 0.0003904642358276341
0.0 0.0003858996124563359
0.0 0.00038293177182239575
0.0 0.0003811415835484587
0.0 0.0003800657601369777
0.0 0.0003793885488809564
0.0 0.00037881451202005016
0.0 0.0003778595714724689
0.0 0.0003766876257482039
0.0 0.0003750966086223256
0.0 0.0003732030797028333
3.198621400525212e-17 0.0049272451326618375
9.938896843481556e-18 0.002773874597389738
2.644308058762684e-09 0.0015359359776910648
2.425589173563818e-06 0.0009067229661878603
1.8342644870984962e-14 0.0014042041053203603
1.1000019425020676e-17 0.0022597849426047117
1.5365302899505387e-05 0.0005167755517625249
1.1627972084139278e-17 0.0012867734734088433
4.796480522644548e-08 0.0007827997105839821
7.306990825261071e-11 0.0007701206955123964
6.516311513198334e-14 0.0007097590365267226
4.400795568665725e-17 0.0006767768962500189
-2.660174930244365e-17 0.014973736461409756
1.3515201993950908e-17 0.0006657294860763388
3.938634062212532e-06 0.0004445360330806944
5.683088149137025e-07 0.0004392818848731824
1.7353569469680108e-17 0.0011704180815624438
2.3671573474145132e-05 0.00034266630652042914
4.215009385859535e-08 0.00039177096114753705
1.3647871470880142e-09 0.00042324484054165193
3.350067062438153e-11 0.0004004930587871043
7.051459554830465e-13 0.00037727737019634366
1.3627042954685376e-14 0.00037799227367053573
1.58015791212491e-17 0.0006414990043901088
2.888312084932505e-16 0.0003524701497889091
1.3451537725597767e-17 0.00039119165164138353
-1.0439310183510761e-17 0.04847397115433181
4.918038448910829e-06 0.00025692251761477947
2.902629008919444e-06 0.00024088298909045024
1.2174712249608652e-17 0.0003340075302638665
1.451824974878073e-17 0.0003955732173969909
1.51153330213844e-17 0.007989497114757218
3.5066534276191334e-18 0.003711834662427565
2.278502192995159e-06 0.0002215264298045756
1.1728892294144787e-06 0.00023131580739013755
4.014222196953626e-07 0.00022206110465913177
1.137302974856089e-07 0.00020087489890782407
2.68877709439307e-08 0.00019931067518456815
4.295193781893464e-09 0.00022296063447905365
6.333091656767323e-10 0.00021839897860959475
1.011032603923666e-10 0.00020043057286965962
1.1269471197970689e-11 0.0002208509376923468