# vtk DataFile Version 3.0
Some data
ASCII
DATASET UNSTRUCTURED_GRID
POINTS 7930 float
0.0 0.0 0.0
0.0 10.0 0.0
10.0 10.0 0.0
10.0 0.0 0.0
0.5 0.0 0.0
0.0009999999999981016 0.0 0.0
0.001999999999996203 0.0 0.0
0.002999999999994305 0.0 0.0
0.003999999999992409 0.0 0.0
0.004999999999990531 0.0 0.0
0.005999999999988653 0.0 0.0
0.006999999999986775 0.0 0.0
0.007999999999984898 0.0 0.0
0.008999999999983018 0.0 0.0
0.009999999999981142 0.0 0.0
0.01099999999997926 0.0 0.0
0.01199999999997736 0.0 0.0
0.0129999999999754 0.0 0.0
0.01399999999997343 0.0 0.0
0.01499999999997147 0.0 0.0
0.01599999999996944 0.0 0.0
0.0169999999999673 0.0 0.0
0.01799999999996516 0.0 0.0
0.01899999999996302 0.0 0.0
0.01999999999996084 0.0 0.0
0.02099999999995862 0.0 0.0
0.02199999999995639 0.0 0.0
0.02299999999995417 0.0 0.0
0.02399999999995195 0.0 0.0
0.02499999999994972 0.0 0.0
0.0259999999999475 0.0 0.0
0.02699999999994527 0.0 0.0
0.02799999999994315 0.0 0.0
0.0289999999999411 0.0 0.0
0.02999999999993905 0.0 0.0
0.030999999999937 0.0 0.0
0.03199999999993521 0.0 0.0
0.0329999999999335 0.0 0.0
0.0339999999999318 0.0 0.0
0.03499999999993009 0.0 0.0
0.03599999999992853 0.0 0.0
0.036999999999927 0.0 0.0
0.03799999999992547 0.0 0.0
0.03899999999992394 0.0 0.0
0.03999999999992241 0.0 0.0
0.04099999999992088 0.0 0.0
0.04199999999991934 0.0 0.0
0.04299999999991782 0.0 0.0
0.04399999999991629 0.0 0.0
0.04499999999991475 0.0 0.0
0.04599999999991322 0.0 0.0
0.0469999999999117 0.0 0.0
0.04799999999991016 0.0 0.0
0.04899999999990863 0.0 0.0
0.0499999999999071 0.0 0.0
0.05099999999990557 0.0 0.0
0.05199999999990404 0.0 0.0
0.05299999999990251 0.0 0.0
0.05399999999990097 0.0 0.0
0.05499999999989943 0.0 0.0
0.05599999999989791 0.0 0.0
0.05699999999989638 0.0 0.0
0.05799999999989484 0.0 0.0
0.05899999999989317 0.0 0.0
0.05999999999989129 0.0 0.0
0.06099999999988941 0.0 0.0
0.06199999999988753 0.0 0.0
0.06299999999988531 0.0 0.0
0.06399999999988273 0.0 0.0
0.06499999999988015 0.0 0.0
0.06599999999987759 0.0 0.0
0.0669999999998748 0.0 0.0
0.06799999999987189 0.0 0.0
0.06899999999986897 0.0 0.0
0.06999999999986604 0.0 0.0
0.07099999999986313 0.0 0.0
0.0719999999998602 0.0 0.0
0.07299999999985729 0.0 0.0
0.07399999999985438 0.0 0.0
0.07499999999985145 0.0 0.0
0.07599999999984854 0.0 0.0
0.07699999999984562 0.0 0.0
0.0779999999998427 0.0 0.0
0.07899999999983978 0.0 0.0
0.07999999999983685 0.0 0.0
0.08099999999983394 0.0 0.0
0.08199999999983103 0.0 0.0
0.0829999999998281 0.0 0.0
0.08399999999982519 0.0 0.0
0.08499999999982226 0.0 0.0
0.08599999999981935 0.0 0.0
0.08699999999981643 0.0 0.0
0.0879999999998135 0.0 0.0
0.08899999999981059 0.0 0.0
0.08999999999980766 0.0 0.0
0.09099999999980475 0.0 0.0
0.09199999999980184 0.0 0.0
0.09299999999979891 0.0 0.0
0.093999999999796 0.0 0.0
0.09499999999979307 0.0 0.0
0.09599999999979016 0.0 0.0
0.09699999999978724 0.0 0.0
0.09799999999978432 0.0 0.0
0.0989999999997814 0.0 0.0
0.09999999999977847 0.0 0.0
0.1009999999997756 0.0 0.0
0.1019999999997726 0.0 0.0
0.1029999999997697 0.0 0.0
0.1039999999997668 0.0 0.0
0.1049999999997639 0.0 0.0
0.105999999999761 0.0 0.0
0.106999999999758 0.0 0.0
0.1079999999997551 0.0 0.0
0.1089999999997522 0.0 0.0
0.1099999999997493 0.0 0.0
0.1109999999997464 0.0 0.0
0.1119999999997434 0.0 0.0
0.1129999999997405 0.0 0.0
0.1139999999997376 0.0 0.0
0.1149999999997347 0.0 0.0
0.1159999999997318 0.0 0.0
0.1169999999997288 0.0 0.0
0.1179999999997259 0.0 0.0
0.118999999999723 0.0 0.0
0.1199999999997201 0.0 0.0
0.1209999999997172 0.0 0.0
0.1219999999997143 0.0 0.0
0.1229999999997113 0.0 0.0
0.1239999999997084 0.0 0.0
0.1249999999997055 0.0 0.0
0.1259999999997026 0.0 0.0
0.1269999999996997 0.0 0.0
0.1279999999996967 0.0 0.0
0.1289999999996938 0.0 0.0
0.1299999999996909 0.0 0.0
0.130999999999688 0.0 0.0
0.1319999999996851 0.0 0.0
0.1329999999996822 0.0 0.0
0.1339999999996792 0.0 0.0
0.1349999999996764 0.0 0.0
0.1359999999996734 0.0 0.0
0.1369999999996705 0.0 0.0
0.1379999999996676 0.0 0.0
0.1389999999996647 0.0 0.0
0.1399999999996618 0.0 0.0
0.1409999999996588 0.0 0.0
0.1419999999996559 0.0 0.0
0.142999999999653 0.0 0.0
0.1439999999996501 0.0 0.0
0.1449999999996472 0.0 0.0
0.1459999999996442 0.0 0.0
0.1469999999996414 0.0 0.0
0.1479999999996384 0.0 0.0
0.1489999999996355 0.0 0.0
0.1499999999996326 0.0 0.0
0.1509999999996297 0.0 0.0
0.1519999999996268 0.0 0.0
0.1529999999996239 0.0 0.0
0.1539999999996209 0.0 0.0
0.154999999999618 0.0 0.0
0.1559999999996151 0.0 0.0
0.1569999999996122 0.0 0.0
0.1579999999996093 0.0 0.0
0.1589999999996064 0.0 0.0
0.1599999999996035 0.0 0.0
0.1609999999996005 0.0 0.0
0.1619999999995976 0.0 0.0
0.1629999999995947 0.0 0.0
0.1639999999995918 0.0 0.0
0.1649999999995889 0.0 0.0
0.165999999999586 0.0 0.0
0.1669999999995831 0.0 0.0
0.1679999999995801 0.0 0.0
0.1689999999995772 0.0 0.0
0.1699999999995743 0.0 0.0
0.1709999999995714 0.0 0.0
0.1719999999995685 0.0 0.0
0.1729999999995655 0.0 0.0
0.1739999999995626 0.0 0.0
0.1749999999995597 0.0 0.0
0.1759999999995568 0.0 0.0
0.1769999999995539 0.0 0.0
0.177999999999551 0.0 0.0
0.178999999999548 0.0 0.0
0.1799999999995451 0.0 0.0
0.1809999999995422 0.0 0.0
0.1819999999995393 0.0 0.0
0.1829999999995364 0.0 0.0
0.1839999999995335 0.0 0.0
0.1849999999995305 0.0 0.0
0.1859999999995277 0.0 0.0
0.1869999999995247 0.0 0.0
0.1879999999995218 0.0 0.0
0.1889999999995189 0.0 0.0
0.189999999999516 0.0 0.0
0.1909999999995131 0.0 0.0
0.1919999999995101 0.0 0.0
0.1929999999995072 0.0 0.0
0.1939999999995043 0.0 0.0
0.1949999999995014 0.0 0.0
0.1959999999994985 0.0 0.0
0.1969999999994956 0.0 0.0
0.1979999999994927 0.0 0.0
0.1989999999994897 0.0 0.0
0.1999999999994868 0.0 0.0
0.2009999999994839 0.0 0.0
0.201999999999481 0.0 0.0
0.2029999999994781 0.0 0.0
0.2039999999994752 0.0 0.0
0.2049999999994722 0.0 0.0
0.2059999999994693 0.0 0.0
0.2069999999994664 0.0 0.0
0.2079999999994635 0.0 0.0
0.2089999999994606 0.0 0.0
0.2099999999994577 0.0 0.0
0.2109999999994548 0.0 0.0
0.2119999999994518 0.0 0.0
0.2129999999994489 0.0 0.0
0.213999999999446 0.0 0.0
0.2149999999994431 0.0 0.0
0.2159999999994402 0.0 0.0
0.2169999999994373 0.0 0.0
0.2179999999994343 0.0 0.0
0.2189999999994314 0.0 0.0
0.2199999999994285 0.0 0.0
0.2209999999994256 0.0 0.0
0.2219999999994227 0.0 0.0
0.2229999999994198 0.0 0.0
0.2239999999994168 0.0 0.0
0.2249999999994139 0.0 0.0
0.225999999999411 0.0 0.0
0.2269999999994081 0.0 0.0
0.2279999999994052 0.0 0.0
0.2289999999994023 0.0 0.0
0.2299999999993994 0.0 0.0
0.2309999999993964 0.0 0.0
0.2319999999993935 0.0 0.0
0.2329999999993906 0.0 0.0
0.2339999999993877 0.0 0.0
0.2349999999993848 0.0 0.0
0.2359999999993818 0.0 0.0
0.236999999999379 0.0 0.0
0.237999999999376 0.0 0.0
0.2389999999993731 0.0 0.0
0.2399999999993702 0.0 0.0
0.2409999999993673 0.0 0.0
0.2419999999993644 0.0 0.0
0.2429999999993615 0.0 0.0
0.2439999999993585 0.0 0.0
0.2449999999993556 0.0 0.0
0.2459999999993527 0.0 0.0
0.246999999999351 0.0 0.0
0.2479999999993495 0.0 0.0
0.248999999999348 0.0 0.0
0.2499999999993464 0.0 0.0
0.2509999999993477 0.0 0.0
0.2519999999993489 0.0 0.0
0.2529999999993502 0.0 0.0
0.2539999999993516 0.0 0.0
0.2549999999993542 0.0 0.0
0.2559999999993569 0.0 0.0
0.2569999999993595 0.0 0.0
0.2579999999993621 0.0 0.0
0.2589999999993647 0.0 0.0
0.2599999999993673 0.0 0.0
0.26099999999937 0.0 0.0
0.2619999999993726 0.0 0.0
0.2629999999993753 0.0 0.0
0.2639999999993779 0.0 0.0
0.2649999999993806 0.0 0.0
0.2659999999993832 0.0 0.0
0.2669999999993858 0.0 0.0
0.2679999999993884 0.0 0.0
0.2689999999993911 0.0 0.0
0.2699999999993937 0.0 0.0
0.2709999999993963 0.0 0.0
0.271999999999399 0.0 0.0
0.2729999999994017 0.0 0.0
0.2739999999994043 0.0 0.0
0.2749999999994069 0.0 0.0
0.2759999999994096 0.0 0.0
0.2769999999994122 0.0 0.0
0.2779999999994148 0.0 0.0
0.2789999999994174 0.0 0.0
0.2799999999994201 0.0 0.0
0.2809999999994228 0.0 0.0
0.2819999999994254 0.0 0.0
0.282999999999428 0.0 0.0
0.2839999999994306 0.0 0.0
0.2849999999994333 0.0 0.0
0.2859999999994359 0.0 0.0
0.2869999999994385 0.0 0.0
0.2879999999994411 0.0 0.0
0.2889999999994439 0.0 0.0
0.2899999999994465 0.0 0.0
0.2909999999994491 0.0 0.0
0.2919999999994517 0.0 0.0
0.2929999999994544 0.0 0.0
0.293999999999457 0.0 0.0
0.2949999999994596 0.0 0.0
0.2959999999994622 0.0 0.0
0.2969999999994649 0.0 0.0
0.2979999999994676 0.0 0.0
0.2989999999994702 0.0 0.0
0.2999999999994728 0.0 0.0
0.3009999999994754 0.0 0.0
0.3019999999994781 0.0 0.0
0.3029999999994807 0.0 0.0
0.3039999999994834 0.0 0.0
0.304999999999486 0.0 0.0
0.3059999999994886 0.0 0.0
0.3069999999994913 0.0 0.0
0.3079999999994939 0.0 0.0
0.3089999999994965 0.0 0.0
0.3099999999994992 0.0 0.0
0.3109999999995018 0.0 0.0
0.3119999999995045 0.0 0.0
0.3129999999995071 0.0 0.0
0.3139999999995097 0.0 0.0
0.3149999999995123 0.0 0.0
0.315999999999515 0.0 0.0
0.3169999999995176 0.0 0.0
0.3179999999995203 0.0 0.0
0.3189999999995229 0.0 0.0
0.3199999999995256 0.0 0.0
0.3209999999995282 0.0 0.0
0.3219999999995308 0.0 0.0
0.3229999999995334 0.0 0.0
0.323999999999536 0.0 0.0
0.3249999999995387 0.0 0.0
0.3259999999995414 0.0 0.0
0.326999999999544 0.0 0.0
0.3279999999995466 0.0 0.0
0.3289999999995493 0.0 0.0
0.3299999999995519 0.0 0.0
0.3309999999995545 0.0 0.0
0.3319999999995571 0.0 0.0
0.3329999999995598 0.0 0.0
0.3339999999995625 0.0 0.0
0.3349999999995651 0.0 0.0
0.3359999999995677 0.0 0.0
0.3369999999995703 0.0 0.0
0.337999999999573 0.0 0.0
0.3389999999995756 0.0 0.0
0.3399999999995783 0.0 0.0
0.3409999999995809 0.0 0.0
0.3419999999995835 0.0 0.0
0.3429999999995862 0.0 0.0
0.3439999999995888 0.0 0.0
0.3449999999995914 0.0 0.0
0.345999999999594 0.0 0.0
0.3469999999995967 0.0 0.0
0.3479999999995994 0.0 0.0
0.348999999999602 0.0 0.0
0.3499999999996046 0.0 0.0
0.3509999999996072 0.0 0.0
0.3519999999996099 0.0 0.0
0.3529999999996125 0.0 0.0
0.3539999999996151 0.0 0.0
0.3549999999996178 0.0 0.0
0.3559999999996205 0.0 0.0
0.3569999999996231 0.0 0.0
0.3579999999996257 0.0 0.0
0.3589999999996283 0.0 0.0
0.359999999999631 0.0 0.0
0.3609999999996336 0.0 0.0
0.3619999999996362 0.0 0.0
[...]
POINT_DATA 7930
SCALARS Disp float 2
LOOKUP_TABLE default
0.0 0.0006454698984633566
0.0 0.1
0.0 0.1
0.0 0.0
2.780865187783419e-15 0.0
-6.864084790954759e-06 0.0006450096244797679
-1.3637662588524778e-05 0.0006439383892672877
-2.0515306119545178e-05 0.0006427822478951532
-2.7764701040722533e-05 0.000640353785063752
-3.447082350588175e-05 0.000636044172115774
-4.0805567746170735e-05 0.0006316192845537145
-4.7525140215017416e-05 0.00062852786637291
-5.476963866026799e-05 0.0006241068879888844
-6.185194775797865e-05 0.0006165695765724962
-6.825845516170278e-05 0.0006085388694633122
-7.48045487358936e-05 0.000602290024300058
-8.237602139725277e-05 0.0005948072550173474
-8.935909194943691e-05 0.0005837946855700241
-9.545915012450955e-05 0.0005721325668594091
-0.00010196976308153142 0.0005624584605904811
-0.00010912611654365844 0.000551768390419089
-0.00011658235056227534 0.0005368510635793793
-0.00012274598605368708 0.0005204983654660657
-0.00012907289340470475 0.0005060568422943701
-0.00013656196253114853 0.0004911559422039861
-0.00014428406160968342 0.00047002450874332637
-0.00015043776548267593 0.0004468858885784363
-0.00015634159901850507 0.0004257708586074755
-0.00016356180423176953 0.00040306272949821816
-0.000170918121043612 0.00037374390522999025
-0.00017725886946995428 0.00033927614870172043
-0.00018258391032150266 0.0003051633955202427
-0.00019015443102763044 0.00026469657226658566
-0.0001954032043475348 0.00021024352603388804
-0.0001951088664584972 0.00013403830878611086
-0.00018070172704659322 0.0
-0.00015598923360086095 0.0
-0.0001403484835178228 0.0
-0.0001290717434431531 0.0
-0.0001196500524200532 0.0
-0.00011186384595234554 0.0
-0.00010549288426372606 0.0
-9.985881266238071e-05 0.0
-9.492030903542242e-05 0.0
-9.044750913996808e-05 0.0
-8.640549127152572e-05 0.0
-8.271306038648583e-05 0.0
-7.925870440795134e-05 0.0
-7.603646251513066e-05 0.0
-7.305925381528093e-05 0.0
-7.026968386787914e-05 0.0
-6.767581529958328e-05 0.0
-6.52323567128933e-05 0.0
-6.29237638902204e-05 0.0
-6.0732667139344325e-05 0.0
-5.8663401231790946e-05 0.0
-5.671093412879534e-05 0.0
-5.486025080245423e-05 0.0
-5.304746028816299e-05 0.0
-5.135189742387462e-05 0.0
-4.9739822608020966e-05 0.0
-4.820234719584303e-05 0.0
-4.6726448251033594e-05 0.0
-4.531656082056682e-05 0.0
-4.396268679664429e-05 0.0
-4.265533644629467e-05 0.0
-4.139909227986926e-05 0.0
-4.018902136272015e-05 0.0
-3.901890458138629e-05 0.0
-3.7891575825858363e-05 0.0
-3.680478492608919e-05 0.0
-3.5752012852283066e-05 0.0
-3.4732920025988925e-05 0.0
-3.3749044608623556e-05 0.0
-3.279859512074733e-05 0.0
-3.187578845711507e-05 0.0
-3.098180671932422e-05 0.0
-3.0114851922808323e-05 0.0
-2.9270856637680766e-05 0.0
-2.8452419016324938e-05 0.0
-2.7658157846585387e-05 0.0
-2.688595684732417e-05 0.0
-2.6134824164942826e-05 0.0
-2.5401432382212045e-05 0.0
-2.4687378019673916e-05 0.0
-2.3991204642489272e-05 0.0
-2.331071753527503e-05 0.0
-2.2645583595647015e-05 0.0
-2.19969797380411e-05 0.0
-2.1360793530188775e-05 0.0
-2.0737525082920257e-05 0.0
-2.0128503194847983e-05 0.0
-1.9532639992427247e-05 0.0
-1.8950219333723204e-05 0.0
-1.837940581545317e-05 0.0
-1.782117144908882e-05 0.0
-1.7275091049231946e-05 0.0
-1.674064627377496e-05 0.0
-1.621821297985114e-05 0.0
-1.5708351318182986e-05 0.0
-1.521044759148127e-05 0.0
-1.4723336138409316e-05 0.0
-1.4248131954590732e-05 0.0
-1.3783654334514208e-05 0.0
-1.3330529897682441e-05 0.0
-1.2888449461368844e-05 0.0
-1.2457568472517487e-05 0.0
-1.2037391634048606e-05 0.0
-1.1627692931607678e-05 0.0
-1.1228168183998488e-05 0.0
-1.0836669643957087e-05 0.0
-1.0455505865057927e-05 0.0
-1.008453541720948e-05 0.0
-9.718569645201066e-06 0.0
-9.3618520216702e-06 0.0
-9.012950908629795e-06 0.0
-8.670401892488085e-06 0.0
-8.334629236262989e-06 0.0
-8.005189824945368e-06 0.0
-7.681288515610864e-06 0.0
-7.3631277594663444e-06 0.0
-7.050619698673755e-06 0.0
-6.743318007556839e-06 0.0
-6.442064874472798e-06 0.0
-6.143223361722654e-06 0.0
-5.850019784450587e-06 0.0
-5.5609306932359205e-06 0.0
-5.276979292254663e-06 0.0
-4.996516188512707e-06 0.0
-4.7207261311028616e-06 0.0
-4.449394700427478e-06 0.0
-4.1826792269197884e-06 0.0
-3.920290477796634e-06 0.0
-3.6626491090422505e-06 0.0
-3.4096739566546346e-06 0.0
-3.1616297260728397e-06 0.0
-2.9185181974749673e-06 0.0
-2.680869660962726e-06 0.0
-2.4489548664933375e-06 0.0
-2.2212592891108476e-06 0.0
-1.9993108528275e-06 0.0
-1.7830253329440806e-06 0.0
-1.572381572647972e-06 0.0
-1.3673140130774156e-06 0.0
-1.1680166844550458e-06 0.0
-9.746925512131488e-07 0.0
-7.87244292154465e-07 0.0
-6.057531954317707e-07 0.0
-4.2994648039866405e-07 0.0
-2.6002085912814964e-07 0.0
-9.6307684936613e-08 0.0
6.15429313536217e-08 0.0
2.1407482680190665e-07 0.0
3.611078918103074e-07 0.0
5.022336616612507e-07 0.0
6.379698317303338e-07 0.0
7.681596128455693e-07 0.0
8.931748304682894e-07 0.0
1.0133241497894128e-06 0.0
1.1282200534248133e-06 0.0
1.2384059119590793e-06 0.0
1.3428423117845246e-06 0.0
1.443953730400923e-06 0.0
1.5400389418126927e-06 0.0
1.631523206479546e-06 0.0
1.718924962218602e-06 0.0
1.8017234023042142e-06 0.0
1.8816619414944773e-06 0.0
1.957123214765732e-06 0.0
2.0285144742209053e-06 0.0
2.0964131938741823e-06 0.0
2.1606835246819804e-06 0.0
2.221709029289511e-06 0.0
2.2793518090215343e-06 0.0
2.333634491909959e-06 0.0
2.384873638715402e-06 0.0
2.4327415336401466e-06 0.0
2.4776102471850655e-06 0.0
2.5196014955463087e-06 0.0
2.5586118113508467e-06 0.0
2.5945807139083915e-06 0.0
2.6276379664739682e-06 0.0
2.658089345579319e-06 0.0
2.6857292205720544e-06 0.0
2.7105233189838925e-06 0.0
2.7327769043269174e-06 0.0
2.752296220960802e-06 0.0
2.7690505103248568e-06 0.0
2.7833841445757257e-06 0.0
2.795296733613054e-06 0.0
2.8045599086217002e-06 0.0
2.8113755422289974e-06 0.0
2.8156586799398933e-06 0.0
2.8174166663760183e-06 0.0
2.8169355929124087e-06 0.0
2.8141073469607057e-06 0.0
2.808923368781165e-06 0.0
2.801495029935369e-06 0.0
2.791859133438564e-06 0.0
2.7798904712261825e-06 0.0
2.765838728147751e-06 0.0
2.749806491330132e-06 0.0
2.731635241631477e-06 0.0
2.7116008473130988e-06 0.0
2.6895962840526174e-06 0.0
2.665787986282298e-06 0.0
2.640295303028211e-06 0.0
2.6129847213684197e-06 0.0
2.5839961396822908e-06 0.0
2.5534864784516596e-06 0.0
2.521507065870479e-06 0.0
2.488101952578517e-06 0.0
2.4534003870143495e-06 0.0
2.417460099175355e-06 0.0
2.3803231718271376e-06 0.0
2.3420687442818783e-06 0.0
2.302843467491699e-06 0.0
2.262696642934339e-06 0.0
2.2216767192836643e-06 0.0
2.179934907735803e-06 0.0
2.1374995532055578e-06 0.0
2.0944770065076042e-06 0.0
2.050921404577606e-06 0.0
2.006917432429051e-06 0.0
1.962560519864009e-06 0.0
1.9179069647963945e-06 0.0
1.873042737728217e-06 0.0
1.8280420209778983e-06 0.0
1.7829687650942297e-06 0.0
1.737889755879837e-06 0.0
1.6928703408634183e-06 0.0
1.647973199266767e-06 0.0
1.6032573348811415e-06 0.0
1.5587833606862722e-06 0.0
1.5145938778261637e-06 0.0
1.4707623459411386e-06 0.0
1.427343764575573e-06 0.0
1.384358253444912e-06 0.0
1.3418693509861283e-06 0.0
1.2999247109814839e-06 0.0
1.2585409066068551e-06 0.0
1.2177561509636884e-06 0.0
1.1776215292573816e-06 0.0
1.1381559673484465e-06 0.0
1.0993758257984993e-06 0.0
1.0613264679617882e-06 0.0
1.0240306315535493e-06 0.0
9.874616545156903e-07 0.0
9.51683929351551e-07 0.0
9.167217463073688e-07 0.0
8.825333492575329e-07 0.0
8.4919148026249e-07 0.0
8.166689495692732e-07 0.0
7.849754028825136e-07 0.0
7.541331524051079e-07 0.0
7.241103342611537e-07 0.0
6.949253047023502e-07 0.0
6.666110600790898e-07 0.0
6.390949301327077e-07 0.0
6.123985412922544e-07 0.0
5.865241286053714e-07 0.0
5.6148077126056e-07 0.0
5.37252182440254e-07 0.0
5.138261074589286e-07 0.0
4.911824582598953e-07 0.0
4.693180614696289e-07 0.0
4.482163256553006e-07 0.0
4.2787868757152097e-07 0.0
4.08269362413062e-07 0.0
3.89368594658538e-07 0.0
3.711781129627699e-07 0.0
3.536840738473086e-07 0.0
3.368514835609311e-07 0.0
3.20751366980638e-07 0.0
3.051627650619136e-07 0.0
2.902655819003687e-07 0.0
2.75964795341104e-07 0.0
2.6226353058778937e-07 0.0
2.4913552878318434e-07 0.0
2.3655866690262086e-07 0.0
2.2453320475459324e-07 0.0
2.1303209721508361e-07 0.0
2.020301210295179e-07 0.0
1.915223461127505e-07 0.0
1.814715786629694e-07 0.0
1.718949164103289e-07 0.0
1.627739431082215e-07 0.0
1.540610597772967e-07 0.0
1.4575981272640972e-07 0.0
1.3784675902625157e-07 0.0
1.3031294312527447e-07 0.0
1.231517775513838e-07 0.0
1.1633616613009908e-07 0.0
1.0985947943064842e-07 0.0
1.0370556409539314e-07 0.0
9.785473906159595e-08 0.0
9.22911579901796e-08 0.0
8.702796983849575e-08 0.0
8.20317978864609e-08 0.0
7.729384823797321e-08 0.0
7.280232020427417e-08 0.0
6.854804303742881e-08 0.0
6.452058207172252e-08 0.0
6.070812367613185e-08 0.0
5.710285526796432e-08 0.0
5.36907745813707e-08 0.0
5.0468081024966225e-08 0.0
4.742261815245158e-08 0.0
4.454657669859897e-08 0.0
4.183237830275157e-08 0.0
3.927058487936727e-08 0.0
3.6853114683706866e-08 0.0
3.4572907135866243e-08 0.0
3.242092427198975e-08 0.0
3.039501831209317e-08 0.0
2.8488489359247776e-08 0.0
2.6692450044051013e-08 0.0
2.5000489732309653e-08 0.0
2.3408721677232906e-08 0.0
2.1910655139740954e-08 0.0
2.0501954946268908e-08 0.0
1.918080606650103e-08 0.0
1.794061300113855e-08 0.0
1.677554325197972e-08 0.0
1.5678050768568387e-08 0.0
1.4648744383074712e-08 0.0
1.3684298101139955e-08 0.0
1.2776963291740007e-08 0.0
1.1926905308869389e-08 0.0
1.1132009812706425e-08 0.0
1.038475791664736e-08 0.0
9.686815362451496e-09 0.0
9.032955369879665e-09 0.0
8.420835626166307e-09 0.0
7.8494160529562e-09 0.0
7.3138781297414594e-09 0.0
6.813051152704562e-09 0.0
6.34476416882363e-09 0.0
5.9074229059213885e-09 0.0
5.498605662222991e-09 0.0
5.116610104353453e-09 0.0
4.759697452010468e-09 0.0
4.426216891467482e-09 0.0
4.11543385933751e-09 0.0
3.825449332515132e-09 0.0
3.5549923136154874e-09 0.0
3.3026179102357087e-09 0.0
3.067345679727509e-09 0.0
2.8482844787744886e-09 0.0
2.644946386441069e-09 0.0
2.454743412676515e-09 0.0
2.2780739536907175e-09 0.0
2.1132935039653803e-09 0.0
1.959512910147876e-09 0.0
1.8169572084355761e-09 0.0
1.6848582241899556e-09 0.0
1.5614448625714587e-09 0.0
1.4469166901295503e-09 0.0
1.3402953365169488e-09 0.0
1.2412980394467431e-09 0.0
1.1497808763735773e-09 0.0
1.0643369538891277e-09 0.0
9.851220931003402e-10 0.0
9.115610321895546e-10 0.0
8.430891097903669e-10 0.0
7.797428071789424e-10 0.0
7.210973701254515e-10 0.0
6.665988960078451e-10 0.0
6.161174841301073e-10 0.0
5.693445532061729e-10 0.0
5.259869391706802e-10 0.0
4.85861536712282e-10 0.0
4.4871086023558874e-10 0.0
4.142921871718118e-10 0.0
3.8243007760248135e-10 0.0
3.529043481278496e-10 0.0
3.256208669702063e-10 0.0
3.0040181584002785e-10 0.0
2.770743646704707e-10 0.0
2.5551645228793703e-10 0.0
2.35583514047934e-10 0.0
2.1719354025085475e-10 0.0
2.0019156417459387e-10 0.0
1.8440743883591046e-10 0.0
1.6987045353461533e-10 0.0
1.565133252646277e-10 0.0
1.4412788722803658e-10 0.0
1.3264970968210935e-10 0.0
1.221146911110667e-10 0.0
1.1241317155270119e-10 0.0
1.0344107705814856e-10 0.0
9.515922744577665e-11 0.0
8.752826869624953e-11 0.0
8.047010354507684e-11 0.0
7.398601932857216e-11 0.0
6.8034726663526e-11 0.0
6.252889189786259e-11 0.0
5.745523280815899e-11 0.0
5.278810827594433e-11 0.0
4.8469195678375967e-11 0.0
4.451464711028114e-11 0.0
4.0877195736695256e-11 0.0
3.7525387017521816e-11 0.0
3.4450126247027845e-11 0.0
3.162387993425063e-11 0.0
2.9015884851968342e-11 0.0
2.6617754313423755e-11 0.0
2.4414869171281397e-11 0.0
2.2392291124313256e-11 0.0
2.053286870904056e-11 0.0
1.8824416477106115e-11 0.0
1.725539215724282e-11 0.0
1.58155777338802e-11 0.0
1.4492927552660345e-11 0.0
1.3278996589183768e-11 0.0
1.2163741576162241e-11 0.0
1.1138931202099746e-11 0.0
1.019972009179634e-11 0.0
9.338497186841461e-12 0.0
8.548465231493637e-12 0.0
7.824683422212275e-12 0.0
7.1611695442176166e-12 0.0
6.5520309590225505e-12 0.0
5.994197753152883e-12 0.0
5.482372491236588e-12 0.0
5.013527251738246e-12 0.0
4.584627528954457e-12 0.0
4.191755416235711e-12 0.0
3.830419941991511e-12 0.0
3.501099012161328e-12 0.0
3.1995057451713816e-12 0.0
2.923864481222054e-12 0.0
2.671092798012644e-12 0.0
2.4397366076399645e-12 0.0
2.228140719621431e-12 0.0
2.0345553071158187e-12 0.0
1.8573697391901166e-12 0.0
1.695162943983887e-12 0.0
1.5469383608292102e-12 0.0
1.4116510093153237e-12 0.0
1.2879796664487984e-12 0.0
1.1749722927685273e-12 0.0
1.0718194024157546e-12 0.0
9.776068675633552e-13 0.0
8.91172506595728e-13 0.0
8.125038983273704e-13 0.0
7.407441201142357e-13 0.0
6.752758965003921e-13 0.0
6.154356012791065e-13 0.0
5.609110302672628e-13 0.0
5.108982276784965e-13 0.0
4.654850585001929e-13 0.0
4.2402708802519173e-13 0.0
3.861782804834803e-13 0.0
3.5170497981716117e-13 0.0
3.2024884925228367e-13 0.0
2.9152737012159936e-13 0.0
2.653460791247227e-13 0.0
2.414746375721431e-13 0.0
2.1971520803452896e-13 0.0
1.999712715875725e-13 0.0
1.8187412353716529e-13 0.0
1.6543426595090083e-13 0.0
1.5045084507088823e-13 0.0
1.368177184632881e-13 0.0
1.2442260566986755e-13 0.0
1.1313607250376648e-13 0.0
1.0283917819253633e-13 0.0
9.343631306570198e-14 0.0
8.490434774461369e-14 0.0
7.718312007075673e-14 0.0
7.016657743025608e-14 0.0
6.373309720187361e-14 0.0
5.789343448109646e-14 0.0
5.2573214013251436e-14 0.0
4.7738788202362384e-14 0.0
4.3340155826923884e-14 0.0
3.934658702462206e-14 0.0
3.5717201753909417e-14 0.0
3.2407199934254183e-14 0.0
2.941006768502762e-14 0.0
2.6689966655378203e-14 0.0
2.4224443277399572e-14 0.0
2.1978634848233e-14 0.0
1.9936921505933336e-14 0.0
1.8080958304648456e-14 0.0
1.6398006871788747e-14 0.0
1.4878710750421128e-14 0.0
1.3488151479150257e-14 0.0
1.2228635251035383e-14 0.0
1.1086457426262636e-14 0.0
1.0048255320703557e-14 0.0
9.111475358283422e-15 0.0
8.256906175818224e-15 0.0
7.480620179139129e-15 0.0
6.778583363760269e-15 0.0
6.142453793679918e-15 0.0
5.563710035611118e-15 0.0
5.039927906337493e-15 0.0
4.5652242991429126e-15 0.0
4.135847218519859e-15 0.0
3.745879241773622e-15 0.0
3.390589654049139e-15 0.0
3.070776205254244e-15 0.0
2.508675185364588e-15 0.0
2.2431869790078455e-15 0.0
1.9857579611568875e-15 0.0
1.7389932563056881e-15 0.0
1.5055692636194033e-15 0.0
1.286970644803925e-15 0.0
1.0850382321052742e-15 0.0
9.01519717056715e-16 0.0
7.37192558324725e-16 0.0
5.925746816806726e-16 0.0
4.680336465979213e-16 0.0
3.622849731709499e-16 0.0
2.753152510179909e-16 0.0
2.0496330901910237e-16 0.0
1.4955595825987086e-16 0.0
1.078548195161656e-16 0.0
7.723443317592937e-17 0.0
5.4980091564423493e-17 0.0
3.9896368210279425e-17 0.0
2.994166018231484e-17 0.0
2.4080095166715737e-17 0.0
2.0907369894351282e-17 0.0
1.8973412217676982e-17 0.0
1.7310981234410836e-17 0.0
1.5433107335035417e-17 0.0
1.3791753156810388e-17 0.0
1.2561531737053914e-17 0.0
1.1400749833065654e-17 0.0
1.0652742575401883e-17 0.0
1.1021113363950191e-17 0.0
1.2139521598879995e-17 0.0
1.4103024925074045e-17 0.0
1.5412387640485834e-17 0.0
1.402748000482914e-17 0.0
1.514245272836798e-17 0.0
1.8575999931127923e-17 0.0
2.2298757705768942e-17 0.0
2.6512726504378134e-17 0.0
2.9462057808758785e-17 0.0
3.108778366804566e-17 0.0
2.0747198266599605e-17 0.0
1.374910836399031e-17 0.0
6.359479787679145e-18 0.0
1.5104094583914456e-17 0.0
5.127698603256416e-17 0.0
4.4450474465336925e-17 0.0
3.048725583297543e-17 0.0
4.221829002024075e-17 0.0
3.3035785182993695e-17 0.0
2.507071867931803e-17 0.0
4.0004320468490195e-17 0.0
3.9137263926347833e-17 0.0
1.7146974858659383e-17 0.0
3.649987320333374e-17 0.0
1.8317186962185218e-17 0.0
4.6345794543715195e-17 0.0
3.662393912598311e-17 0.0
4.960427326738685e-17 0.0
9.467437703170252e-17 0.0
6.385434367321668e-17 0.0
4.779008463798384e-17 0.0
4.82586364893749e-17 0.0
7.193045044285129e-17 0.0
-1.7876235244584586e-17 0.0
1.113290825977138e-16 0.0
1.5249145740863922e-17 0.0
2.0021547270123358e-17 0.0
5.213488322005653e-17 0.0
-1.9536217852329904e-17 0.0
8.773068023359214e-17 0.0
-1.3133128194017713e-17 0.0
1.4442362192784724e-17 0.0
8.26041339735565e-17 0.0
-3.955373096516086e-17 0.0
9.281320596033766e-17 0.0
4.375255489238051e-17 0.0
-7.534431601314284e-17 0.0
3.587195886747104e-17 0.0
-2.2219014280340527e-17 0.0
0.0 0.009234165287257743
0.0 0.022109785930449533
0.0 0.04006285207153212
0.0 0.0650956392632368
-4.6787006250192465e-17 0.1
-6.262910004094693e-17 0.1
5.824789147119536e-16 0.1
-7.224353392376339e-16 0.1
0.0 0.09234095951662735
0.0 0.08526779443702924
0.0 0.07873568783498855
0.0 0.0727032535817001
0.0 0.06713226878994043
0.0 0.06198743331091614
0.0 0.057236152337948265
0.0 0.05284831692952161
0.0 0.04879612844994126
0.0 0.04505391065784532
0.0 0.04159795282712668
0.0 0.03840635724257081
0.0 0.03545890171822313
0.0 0.03273691087332637
0.0 0.030223137736027823
0.0 0.027901654838203154
0.0 0.025757753001959628
0.0 0.023777848352115015
0.0 0.021949395807802953
0.0 0.020260810255894563
0.0 0.01870139222365354
0.0 0.017261261595034952
0.0 0.01593129333668023
0.0 0.014703060372940589
0.0 0.013568780782904587
0.0 0.012521267482861339
0.0 0.011553883413523846
0.0 0.01066049914384307
0.0 0.009835453922831213
0.0 0.009073520329637758
0.0 0.008369870608788932
0.0 0.007720046303381562
0.0 0.007119930012360138
0.0 0.006565719473503451
0.0 0.006053903138567362
0.0 0.005581237991563867
0.0 0.005144729226040172
0.0 0.004741611057458786
0.0 0.004369329279406342
0.0 0.004025525048560455
0.0 0.0037080200618166666
0.0 0.003414806249252632
0.0 0.0031440614630763495
0.0 0.0028942450661209197
0.0 0.0026642432000994224
0.0 0.002453325562844194
0.0 0.0022603606394967666
0.0 0.0020837994569599424
0.0 0.0019217997650039578
0.0 0.0017736807862524986
0.0 0.001639272322944839
0.0 0.0015176222851192853
0.0 0.001407006983181242
0.0 0.0013065948648271985
0.0 0.0012159467574976205
0.0 0.0011347460963666565
0.0 0.0010620017241989277
0.0 0.000997025807950504
0.0 0.0009393553756368281
0.0 0.000888653455023231
0.0 0.0008444820967201475
0.0 0.0008065597059447673
0.0 0.0007744761309372799
0.0 0.0007474344068571158
0.0 0.0007255935918402773
0.0 0.0007073010212372853
0.0 0.0006930453740119022
0.0 0.0006823010098836328
0.0 0.0006744114265223307
0.0 0.0006689964866785
0.0 0.0006651289642238594
0.0 0.0006627363975724375
0.0 0.000661142620134542
0.0 0.0006601011330211847
0.0 0.0006592177499157676
0.0 0.0006584623459380846
0.0 0.0006575993899578701
0.0 0.0006565709022382769
0.0 0.0006553308407276255
0.0 0.0006536670418379244
0.0 0.0006518261172608015
0.0 0.000649761227240493
0.0 0.0006476507891409831
4.211737298340167e-18 0.0049272451326618045
1.0477441585473247e-11 0.002773874595883758
4.949608170353987e-06 0.0015396373679294026
2.6186683565231504e-05 0.000925445324533583
1.1939588429627329e-08 0.0014042094873229424
2.687385147281783e-17 0.0022597849426047086
4.087010101042909e-05 0.0005838375187198912
4.486438004830942e-13 0.0012867734735935042
7.050198117638279e-06 0.0007831216572864704
8.01322485664611e-07 0.0007702896430922659
1.632786354840382e-08 0.0007097622340223812
9.21640043791366e-11 0.0006767769124864428
6.435078463425986e-17 0.014973736461408397
2.115925507959139e-13 0.0006657294861159283
9.028760369799355e-06 0.00045015625354635053
5.571264933981744e-06 0.0004363885796386519
1.317511949486172e-17 0.0011704180815624444
5.473544366882632e-05 0.0004945543978678301
3.969538973860367e-06 0.0003910774664614351
2.103324958094244e-06 0.00042338358279207615
4.845938976604516e-07 0.00040054241455179604
6.170997750821188e-08 0.0003772837145790753
5.297184747320755e-09 0.00037799280780354986
4.3089438775580933e-16 0.0006414990043901826
3.71387468988816e-10 0.0003524701854735376
1.3412332316690381e-11 0.0003911916530824552
-9.682713157377859e-17 0.048473971154331344
6.290388473058071e-06 0.000291673891089379
-7.153974385891195e-06 0.0002488853419569631
6.925663130620174e-13 0.00033400753032758094
1.588864748107469e-14 0.0003955732173988497
4.7553105213293406e-17 0.007989497114757186
-2.269925626554008e-17 0.0037118346624276082
-6.0040007118006835e-06 0.00022157785908806507
-1.4732534068997482e-06 0.00022927935023287155
1.5096748155304376e-06 0.00021996010654923425