# vtk DataFile Version 3.0
Some data
ASCII
DATASET UNSTRUCTURED_GRID
POINTS 7930 float
0.0 0.0 0.0
0.0 10.0 0.0
10.0 10.0 0.0
10.0 0.0 0.0
0.5 0.0 0.0
0.0009999999999981016 0.0 0.0
0.001999999999996203 0.0 0.0
0.002999999999994305 0.0 0.0
0.003999999999992409 0.0 0.0
0.004999999999990531 0.0 0.0
0.005999999999988653 0.0 0.0
0.006999999999986775 0.0 0.0
0.007999999999984898 0.0 0.0
0.008999999999983018 0.0 0.0
0.009999999999981142 0.0 0.0
0.01099999999997926 0.0 0.0
0.01199999999997736 0.0 0.0
0.0129999999999754 0.0 0.0
0.01399999999997343 0.0 0.0
0.01499999999997147 0.0 0.0
0.01599999999996944 0.0 0.0
0.0169999999999673 0.0 0.0
0.01799999999996516 0.0 0.0
0.01899999999996302 0.0 0.0
0.01999999999996084 0.0 0.0
0.02099999999995862 0.0 0.0
0.02199999999995639 0.0 0.0
0.02299999999995417 0.0 0.0
0.02399999999995195 0.0 0.0
0.02499999999994972 0.0 0.0
0.0259999999999475 0.0 0.0
0.02699999999994527 0.0 0.0
0.02799999999994315 0.0 0.0
0.0289999999999411 0.0 0.0
0.02999999999993905 0.0 0.0
0.030999999999937 0.0 0.0
0.03199999999993521 0.0 0.0
0.0329999999999335 0.0 0.0
0.0339999999999318 0.0 0.0
0.03499999999993009 0.0 0.0
0.03599999999992853 0.0 0.0
0.036999999999927 0.0 0.0
0.03799999999992547 0.0 0.0
0.03899999999992394 0.0 0.0
0.03999999999992241 0.0 0.0
0.04099999999992088 0.0 0.0
0.04199999999991934 0.0 0.0
0.04299999999991782 0.0 0.0
0.04399999999991629 0.0 0.0
0.04499999999991475 0.0 0.0
0.04599999999991322 0.0 0.0
0.0469999999999117 0.0 0.0
0.04799999999991016 0.0 0.0
0.04899999999990863 0.0 0.0
0.0499999999999071 0.0 0.0
0.05099999999990557 0.0 0.0
0.05199999999990404 0.0 0.0
0.05299999999990251 0.0 0.0
0.05399999999990097 0.0 0.0
0.05499999999989943 0.0 0.0
0.05599999999989791 0.0 0.0
0.05699999999989638 0.0 0.0
0.05799999999989484 0.0 0.0
0.05899999999989317 0.0 0.0
0.05999999999989129 0.0 0.0
0.06099999999988941 0.0 0.0
0.06199999999988753 0.0 0.0
0.06299999999988531 0.0 0.0
0.06399999999988273 0.0 0.0
0.06499999999988015 0.0 0.0
0.06599999999987759 0.0 0.0
0.0669999999998748 0.0 0.0
0.06799999999987189 0.0 0.0
0.06899999999986897 0.0 0.0
0.06999999999986604 0.0 0.0
0.07099999999986313 0.0 0.0
0.0719999999998602 0.0 0.0
0.07299999999985729 0.0 0.0
0.07399999999985438 0.0 0.0
0.07499999999985145 0.0 0.0
0.07599999999984854 0.0 0.0
0.07699999999984562 0.0 0.0
0.0779999999998427 0.0 0.0
0.07899999999983978 0.0 0.0
0.07999999999983685 0.0 0.0
0.08099999999983394 0.0 0.0
0.08199999999983103 0.0 0.0
0.0829999999998281 0.0 0.0
0.08399999999982519 0.0 0.0
0.08499999999982226 0.0 0.0
0.08599999999981935 0.0 0.0
0.08699999999981643 0.0 0.0
0.0879999999998135 0.0 0.0
0.08899999999981059 0.0 0.0
0.08999999999980766 0.0 0.0
0.09099999999980475 0.0 0.0
0.09199999999980184 0.0 0.0
0.09299999999979891 0.0 0.0
0.093999999999796 0.0 0.0
0.09499999999979307 0.0 0.0
0.09599999999979016 0.0 0.0
0.09699999999978724 0.0 0.0
0.09799999999978432 0.0 0.0
0.0989999999997814 0.0 0.0
0.09999999999977847 0.0 0.0
0.1009999999997756 0.0 0.0
0.1019999999997726 0.0 0.0
0.1029999999997697 0.0 0.0
0.1039999999997668 0.0 0.0
0.1049999999997639 0.0 0.0
0.105999999999761 0.0 0.0
0.106999999999758 0.0 0.0
0.1079999999997551 0.0 0.0
0.1089999999997522 0.0 0.0
0.1099999999997493 0.0 0.0
0.1109999999997464 0.0 0.0
0.1119999999997434 0.0 0.0
0.1129999999997405 0.0 0.0
0.1139999999997376 0.0 0.0
0.1149999999997347 0.0 0.0
0.1159999999997318 0.0 0.0
0.1169999999997288 0.0 0.0
0.1179999999997259 0.0 0.0
0.118999999999723 0.0 0.0
0.1199999999997201 0.0 0.0
0.1209999999997172 0.0 0.0
0.1219999999997143 0.0 0.0
0.1229999999997113 0.0 0.0
0.1239999999997084 0.0 0.0
0.1249999999997055 0.0 0.0
0.1259999999997026 0.0 0.0
0.1269999999996997 0.0 0.0
0.1279999999996967 0.0 0.0
0.1289999999996938 0.0 0.0
0.1299999999996909 0.0 0.0
0.130999999999688 0.0 0.0
0.1319999999996851 0.0 0.0
0.1329999999996822 0.0 0.0
0.1339999999996792 0.0 0.0
0.1349999999996764 0.0 0.0
0.1359999999996734 0.0 0.0
0.1369999999996705 0.0 0.0
0.1379999999996676 0.0 0.0
0.1389999999996647 0.0 0.0
0.1399999999996618 0.0 0.0
0.1409999999996588 0.0 0.0
0.1419999999996559 0.0 0.0
0.142999999999653 0.0 0.0
0.1439999999996501 0.0 0.0
0.1449999999996472 0.0 0.0
0.1459999999996442 0.0 0.0
0.1469999999996414 0.0 0.0
0.1479999999996384 0.0 0.0
0.1489999999996355 0.0 0.0
0.1499999999996326 0.0 0.0
0.1509999999996297 0.0 0.0
0.1519999999996268 0.0 0.0
0.1529999999996239 0.0 0.0
0.1539999999996209 0.0 0.0
0.154999999999618 0.0 0.0
0.1559999999996151 0.0 0.0
0.1569999999996122 0.0 0.0
0.1579999999996093 0.0 0.0
0.1589999999996064 0.0 0.0
0.1599999999996035 0.0 0.0
0.1609999999996005 0.0 0.0
0.1619999999995976 0.0 0.0
0.1629999999995947 0.0 0.0
0.1639999999995918 0.0 0.0
0.1649999999995889 0.0 0.0
0.165999999999586 0.0 0.0
0.1669999999995831 0.0 0.0
0.1679999999995801 0.0 0.0
0.1689999999995772 0.0 0.0
0.1699999999995743 0.0 0.0
0.1709999999995714 0.0 0.0
0.1719999999995685 0.0 0.0
0.1729999999995655 0.0 0.0
0.1739999999995626 0.0 0.0
0.1749999999995597 0.0 0.0
0.1759999999995568 0.0 0.0
0.1769999999995539 0.0 0.0
0.177999999999551 0.0 0.0
0.178999999999548 0.0 0.0
0.1799999999995451 0.0 0.0
0.1809999999995422 0.0 0.0
0.1819999999995393 0.0 0.0
0.1829999999995364 0.0 0.0
0.1839999999995335 0.0 0.0
0.1849999999995305 0.0 0.0
0.1859999999995277 0.0 0.0
0.1869999999995247 0.0 0.0
0.1879999999995218 0.0 0.0
0.1889999999995189 0.0 0.0
0.189999999999516 0.0 0.0
0.1909999999995131 0.0 0.0
0.1919999999995101 0.0 0.0
0.1929999999995072 0.0 0.0
0.1939999999995043 0.0 0.0
0.1949999999995014 0.0 0.0
0.1959999999994985 0.0 0.0
0.1969999999994956 0.0 0.0
0.1979999999994927 0.0 0.0
0.1989999999994897 0.0 0.0
0.1999999999994868 0.0 0.0
0.2009999999994839 0.0 0.0
0.201999999999481 0.0 0.0
0.2029999999994781 0.0 0.0
0.2039999999994752 0.0 0.0
0.2049999999994722 0.0 0.0
0.2059999999994693 0.0 0.0
0.2069999999994664 0.0 0.0
0.2079999999994635 0.0 0.0
0.2089999999994606 0.0 0.0
0.2099999999994577 0.0 0.0
0.2109999999994548 0.0 0.0
0.2119999999994518 0.0 0.0
0.2129999999994489 0.0 0.0
0.213999999999446 0.0 0.0
0.2149999999994431 0.0 0.0
0.2159999999994402 0.0 0.0
0.2169999999994373 0.0 0.0
0.2179999999994343 0.0 0.0
0.2189999999994314 0.0 0.0
0.2199999999994285 0.0 0.0
0.2209999999994256 0.0 0.0
0.2219999999994227 0.0 0.0
0.2229999999994198 0.0 0.0
0.2239999999994168 0.0 0.0
0.2249999999994139 0.0 0.0
0.225999999999411 0.0 0.0
0.2269999999994081 0.0 0.0
0.2279999999994052 0.0 0.0
0.2289999999994023 0.0 0.0
0.2299999999993994 0.0 0.0
0.2309999999993964 0.0 0.0
0.2319999999993935 0.0 0.0
0.2329999999993906 0.0 0.0
0.2339999999993877 0.0 0.0
0.2349999999993848 0.0 0.0
0.2359999999993818 0.0 0.0
0.236999999999379 0.0 0.0
0.237999999999376 0.0 0.0
0.2389999999993731 0.0 0.0
0.2399999999993702 0.0 0.0
0.2409999999993673 0.0 0.0
0.2419999999993644 0.0 0.0
0.2429999999993615 0.0 0.0
0.2439999999993585 0.0 0.0
0.2449999999993556 0.0 0.0
0.2459999999993527 0.0 0.0
0.246999999999351 0.0 0.0
0.2479999999993495 0.0 0.0
0.248999999999348 0.0 0.0
0.2499999999993464 0.0 0.0
0.2509999999993477 0.0 0.0
0.2519999999993489 0.0 0.0
0.2529999999993502 0.0 0.0
0.2539999999993516 0.0 0.0
0.2549999999993542 0.0 0.0
0.2559999999993569 0.0 0.0
0.2569999999993595 0.0 0.0
0.2579999999993621 0.0 0.0
0.2589999999993647 0.0 0.0
0.2599999999993673 0.0 0.0
0.26099999999937 0.0 0.0
0.2619999999993726 0.0 0.0
0.2629999999993753 0.0 0.0
0.2639999999993779 0.0 0.0
0.2649999999993806 0.0 0.0
0.2659999999993832 0.0 0.0
0.2669999999993858 0.0 0.0
0.2679999999993884 0.0 0.0
0.2689999999993911 0.0 0.0
0.2699999999993937 0.0 0.0
0.2709999999993963 0.0 0.0
0.271999999999399 0.0 0.0
0.2729999999994017 0.0 0.0
0.2739999999994043 0.0 0.0
0.2749999999994069 0.0 0.0
0.2759999999994096 0.0 0.0
0.2769999999994122 0.0 0.0
0.2779999999994148 0.0 0.0
0.2789999999994174 0.0 0.0
0.2799999999994201 0.0 0.0
0.2809999999994228 0.0 0.0
0.2819999999994254 0.0 0.0
0.282999999999428 0.0 0.0
0.2839999999994306 0.0 0.0
0.2849999999994333 0.0 0.0
0.2859999999994359 0.0 0.0
0.2869999999994385 0.0 0.0
0.2879999999994411 0.0 0.0
0.2889999999994439 0.0 0.0
0.2899999999994465 0.0 0.0
0.2909999999994491 0.0 0.0
0.2919999999994517 0.0 0.0
0.2929999999994544 0.0 0.0
0.293999999999457 0.0 0.0
0.2949999999994596 0.0 0.0
0.2959999999994622 0.0 0.0
0.2969999999994649 0.0 0.0
0.2979999999994676 0.0 0.0
0.2989999999994702 0.0 0.0
0.2999999999994728 0.0 0.0
0.3009999999994754 0.0 0.0
0.3019999999994781 0.0 0.0
0.3029999999994807 0.0 0.0
0.3039999999994834 0.0 0.0
0.304999999999486 0.0 0.0
0.3059999999994886 0.0 0.0
0.3069999999994913 0.0 0.0
0.3079999999994939 0.0 0.0
0.3089999999994965 0.0 0.0
0.3099999999994992 0.0 0.0
0.3109999999995018 0.0 0.0
0.3119999999995045 0.0 0.0
0.3129999999995071 0.0 0.0
0.3139999999995097 0.0 0.0
0.3149999999995123 0.0 0.0
0.315999999999515 0.0 0.0
0.3169999999995176 0.0 0.0
0.3179999999995203 0.0 0.0
0.3189999999995229 0.0 0.0
0.3199999999995256 0.0 0.0
0.3209999999995282 0.0 0.0
0.3219999999995308 0.0 0.0
0.3229999999995334 0.0 0.0
0.323999999999536 0.0 0.0
0.3249999999995387 0.0 0.0
0.3259999999995414 0.0 0.0
0.326999999999544 0.0 0.0
0.3279999999995466 0.0 0.0
0.3289999999995493 0.0 0.0
0.3299999999995519 0.0 0.0
0.3309999999995545 0.0 0.0
0.3319999999995571 0.0 0.0
0.3329999999995598 0.0 0.0
0.3339999999995625 0.0 0.0
0.3349999999995651 0.0 0.0
0.3359999999995677 0.0 0.0
0.3369999999995703 0.0 0.0
0.337999999999573 0.0 0.0
0.3389999999995756 0.0 0.0
0.3399999999995783 0.0 0.0
0.3409999999995809 0.0 0.0
0.3419999999995835 0.0 0.0
0.3429999999995862 0.0 0.0
0.3439999999995888 0.0 0.0
0.3449999999995914 0.0 0.0
0.345999999999594 0.0 0.0
0.3469999999995967 0.0 0.0
0.3479999999995994 0.0 0.0
0.348999999999602 0.0 0.0
0.3499999999996046 0.0 0.0
0.3509999999996072 0.0 0.0
0.3519999999996099 0.0 0.0
0.3529999999996125 0.0 0.0
0.3539999999996151 0.0 0.0
0.3549999999996178 0.0 0.0
0.3559999999996205 0.0 0.0
0.3569999999996231 0.0 0.0
0.3579999999996257 0.0 0.0
0.3589999999996283 0.0 0.0
0.359999999999631 0.0 0.0
0.3609999999996336 0.0 0.0
0.3619999999996362 0.0 0.0
[...]
POINT_DATA 7930
SCALARS Disp float 2
LOOKUP_TABLE default
0.0 0.002117633261317587
0.0 0.1
0.0 0.1
0.0 0.0
2.218283019666889e-06 0.0
-6.848618588676519e-06 0.002117613027456011
-1.3673310764398948e-05 0.002117295353377243
-2.0454770889042214e-05 0.002116608696787797
-2.736016296579483e-05 0.0021160656023888245
-3.4369029761428764e-05 0.002115428936282466
-4.121406637942014e-05 0.0021138115789259616
-4.778856376598927e-05 0.0021120947711510555
-5.469590824215393e-05 0.002111200143543433
-6.190543783124085e-05 0.002109752290781152
-6.883932981266677e-05 0.002106841875229439
-7.508442670971795e-05 0.0021036383647528296
-8.17231662934309e-05 0.0021023136754644138
-8.927360139206467e-05 0.002100753722320555
-9.627841535259063e-05 0.0020967953369767567
-0.00010237076616985342 0.002092212028898572
-0.0001088289543488995 0.0020898917089177075
-0.0001162595318374983 0.0020879098657806024
-0.00012351608074464068 0.002083310799762414
-0.0001295390899465002 0.002077836641343396
-0.00013592099945046628 0.002074904882661286
-0.0001434824990271787 0.002072335238036714
-0.00015084039586762849 0.002066479038378471
-0.00015681376758582376 0.002059585047916923
-0.00016295758011811756 0.0020558559562589645
-0.0001707025474594138 0.0020532659170932437
-0.0001783260761677943 0.002046447311549498
-0.0001844704164584634 0.0020381606552004267
-0.00019050521680062692 0.002033162532215204
-0.00019803108225227925 0.0020296217185103967
-0.00020572368543674734 0.0020222985000117205
-0.00021189840708510678 0.0020128180541724504
-0.00021789973713569132 0.0020067926604417853
-0.00022550130576245425 0.0020026293728373635
-0.00023303170324339974 0.0019945866919018457
-0.00023946016910709824 0.0019837537742938313
-0.00024531896699544385 0.00197640230008499
-0.00025281778629735813 0.0019714257728800826
-0.0002608341250952694 0.0019623995943430688
-0.0002670704660002656 0.0019500712889539658
-0.0002728077477717815 0.0019414762411369634
-0.000280280909463188 0.0019356520966018797
-0.0002878630803687532 0.0019256934650822245
-0.00029430491249415614 0.0019123854819123563
-0.00029983530528249956 0.0019026125371900504
-0.00030716021788969067 0.0018961284582520333
-0.0003154270769959079 0.0018854454024767456
-0.0003217471460019302 0.0018705551325933934
-0.00032756873197740293 0.0018589126426239036
-0.0003346994756553581 0.0018508924924313334
-0.0003426286814951896 0.001839371109034825
-0.0003492436688449577 0.001823327421013651
-0.00035483675633708706 0.0018101625431264418
-0.000361795949151983 0.0018015824734978806
-0.00037008036301346603 0.0017886201340163337
-0.00037668893017476444 0.0017706911274544533
-0.00038193554713065764 0.0017559131613037041
-0.000388743573791516 0.001745954630895465
-0.0003971298443969077 0.0017324587766515576
-0.00040405746790127056 0.0017131998822495769
-0.00040936013162634914 0.001696228672079411
-0.0004158679681560531 0.0016844323181313316
-0.00042362536037421583 0.0016700177623442285
-0.00043062974846073027 0.001649616167941474
-0.0004361921770332724 0.0016309431177870968
-0.0004429379584366796 0.0016175987128221178
-0.0004512591241272782 0.001601538832193957
-0.0004585991357152508 0.0015787772818245146
-0.0004640717959147412 0.001557420364269206
-0.0004704218073560037 0.001541823803171366
-0.0004785097113109224 0.0015239625430588488
-0.0004858614928898644 0.001499089060227101
-0.0004913996574008236 0.0014751775887539317
-0.0004974975483239549 0.0014575178936839842
-0.0005055733095046828 0.0014380465453382348
-0.000513320150323723 0.0014109661569573382
-0.0005186895132794993 0.0013840628983052454
-0.0005247688784274991 0.0013634453582369477
-0.000532898011811601 0.0013411380271140271
-0.0005406789306004143 0.0013107557661845215
-0.0005458850918707083 0.0012800615695075324
-0.0005514954559547154 0.0012560578424575658
-0.0005598558854640216 0.0012307264228488659
-0.0005679330346918613 0.0011968463493752198
-0.0005731705616387725 0.0011617302396347278
-0.0005789569821771255 0.0011331425317224837
-0.0005868922585312495 0.0011034468176364938
-0.0005946792062801241 0.0010642056762590877
-0.0006004616568766009 0.0010228742178393284
-0.0006061586590447573 0.0009876174088810925
-0.0006139149791669555 0.0009514176092542712
-0.0006221570684551697 0.0009048271566740842
-0.0006281313916991319 0.0008541263124524686
-0.0006335356867248458 0.0008082733818449412
-0.0006417553386417132 0.0007599202608914724
-0.0006492761832148812 0.0006994383580721051
-0.00065389115266163 0.0006316357657169916
-0.000659646788192012 0.0005634679891390311
-0.0006649807671947732 0.00048679084890829784
-0.0006687216648548834 0.0003843436165158044
-0.0006645217032044337 0.00024321626829690608
-0.0006373842519559336 0.0
-0.0005828733423125258 0.0
-0.0005500799644341948 0.0
-0.0005251349232593367 0.0
-0.0005046433179514594 0.0
-0.0004870416993827094 0.0
-0.00047171903862628343 0.0
-0.00045847984292675056 0.0
-0.0004456623006638603 0.0
-0.0004342515081920835 0.0
-0.0004238161015868772 0.0
-0.0004139931174758114 0.0
-0.00040482364144705255 0.0
-0.0003962113170271114 0.0
-0.00038800738179632253 0.0
-0.0003802486547393048 0.0
-0.0003729034319528495 0.0
-0.0003659069374877108 0.0
-0.0003593147509019099 0.0
-0.00035280080931433203 0.0
-0.0003466836003386941 0.0
-0.0003407751460968216 0.0
-0.00033513407106455377 0.0
-0.0003296391801665931 0.0
-0.00032438392157270706 0.0
-0.00031930589564868156 0.0
-0.0003143961775811628 0.0
-0.00030964487435676687 0.0
-0.0003050533387057409 0.0
-0.00030060513684065216 0.0
-0.00029628701885059817 0.0
-0.0002920888789498672 0.0
-0.0002880281549245824 0.0
-0.0002841006617806737 0.0
-0.00028021969797145527 0.0
-0.0002764734623093386 0.0
-0.0002728053990373547 0.0
-0.0002692308553320205 0.0
-0.00026573622889462155 0.0
-0.0002623226373028658 0.0
-0.0002589918740934792 0.0
-0.00025573985023232183 0.0
-0.0002525613336446132 0.0
-0.00024944531616069885 0.0
-0.00024640228556667274 0.0
-0.00024342862763028272 0.0
-0.00024051672731552812 0.0
-0.00023767139616057652 0.0
-0.00023488618658028132 0.0
-0.0002321549691408597 0.0
-0.00022947981814874695 0.0
-0.00022685897384852602 0.0
-0.000224285460125095 0.0
-0.0002217588697517541 0.0
-0.00021928319343369676 0.0
-0.00021686047460836173 0.0
-0.0002144593905792821 0.0
-0.00021212118513189407 0.0
-0.0002098164896474226 0.0
-0.00020755081954265095 0.0
-0.00020533136134712868 0.0
-0.0002031265678291005 0.0
-0.00020097692597786132 0.0
-0.00019886096978304836 0.0
-0.00019677848461052767 0.0
-0.00019473268052420841 0.0
-0.00019272072611683098 0.0
-0.00019074121632770566 0.0
-0.00018879273459983652 0.0
-0.00018687642173784288 0.0
-0.0001849898382543851 0.0
-0.00018312962030461909 0.0
-0.00018130101831770876 0.0
-0.0001795028451849846 0.0
-0.00017772947543985562 0.0
-0.0001759804964554336 0.0
-0.00017425787702758923 0.0
-0.00017256155295891287 0.0
-0.0001708845365448966 0.0
-0.00016922987069178052 0.0
-0.00016759889199783706 0.0
-0.00016598748161628446 0.0
-0.00016439555670526307 0.0
-0.00016282423051588085 0.0
-0.000161274983434488 0.0
-0.00015974285220768597 0.0
-0.0001582303536519515 0.0
-0.00015673680289742475 0.0
-0.00015526134292191386 0.0
-0.0001538052762954952 0.0
-0.0001523687345074344 0.0
-0.00015094839017275517 0.0
-0.00014954570130339 0.0
-0.00014815928374859095 0.0
-0.00014678957850082435 0.0
-0.0001454381165701942 0.0
-0.0001441015866165155 0.0
-0.0001427790720935484 0.0
-0.00014147350644213243 0.0
-0.00014018087466847662 0.0
-0.0001389028880598592 0.0
-0.00013764040413077232 0.0
-0.00013639178644356191 0.0
-0.00013515600783227147 0.0
-0.0001339366642654896 0.0
-0.0001327260591098159 0.0
-0.00013152909415649341 0.0
-0.00013034559771899049 0.0
-0.0001291766775497154 0.0
-0.00012801998691638864 0.0
-0.0001268761783622545 0.0
-0.000125745577531791 0.0
-0.00012462657097096378 0.0
-0.00012351973489100463 0.0
-0.00012242907669568126 0.0
-0.00012134365323412575 0.0
-0.00012027283910462266 0.0
-0.00011921420667951893 0.0
-0.00011816508092120884 0.0
-0.00011712697643769824 0.0
-0.00011609966828045463 0.0
-0.00011508237734860323 0.0
-0.0001140746249152241 0.0
-0.00011307687700346449 0.0
-0.00011208875741055803 0.0
-0.00011110943014804134 0.0
-0.00011014000798394376 0.0
-0.00010917926579259814 0.0
-0.00010822721674694132 0.0
-0.00010728454705047715 0.0
-0.00010634965879516293 0.0
-0.00010542241781323493 0.0
-0.00010450414845639671 0.0
-0.00010359426607525402 0.0
-0.00010269134479638821 0.0
-0.00010179748024512636 0.0
-0.00010091095432101423 0.0
-0.00010003258667512414 0.0
-9.916182648665235e-05 0.0
-9.829825410572477e-05 0.0
-9.744161239955518e-05 0.0
-9.659191543516703e-05 0.0
-9.574959083152697e-05 0.0
-9.491344737048396e-05 0.0
-9.408418981130528e-05 0.0
-9.326278856274316e-05 0.0
-9.244686791756287e-05 0.0
-9.163745010324808e-05 0.0
-9.083548194843276e-05 0.0
-9.003988695664433e-05 0.0
-8.925105915006041e-05 0.0
-8.84689079992175e-05 0.0
-8.769293491577334e-05 0.0
-8.692384155402542e-05 0.0
-8.61620616286311e-05 0.0
-8.540662731771657e-05 0.0
-8.46581197539623e-05 0.0
-8.391645296833168e-05 0.0
-8.318187955991197e-05 0.0
-8.245434020430278e-05 0.0
-8.173368315132553e-05 0.0
-8.101959640248197e-05 0.0
-8.03119264869373e-05 0.0
-7.961101676841438e-05 0.0
-7.891626864362609e-05 0.0
-7.822803442502523e-05 0.0
-7.754608845938467e-05 0.0
-7.687008444902864e-05 0.0
-7.619799984427754e-05 0.0
-7.553409246432171e-05 0.0
-7.487328714866343e-05 0.0
-7.421962151679036e-05 0.0
-7.35688838346979e-05 0.0
-7.292334186328703e-05 0.0
-7.228256355074998e-05 0.0
-7.164647337465967e-05 0.0
-7.101492503990379e-05 0.0
-7.038760996581684e-05 0.0
-6.976475211771521e-05 0.0
-6.914641452444659e-05 0.0
-6.853219502242117e-05 0.0
-6.792200812183046e-05 0.0
-6.731630374099776e-05 0.0
-6.671498877365648e-05 0.0
-6.611775921238704e-05 0.0
-6.55249379666326e-05 0.0
-6.493670125270383e-05 0.0
-6.43530234986146e-05 0.0
-6.3774018246162e-05 0.0
-6.319727802303303e-05 0.0
-6.262641148533553e-05 0.0
-6.205981941172297e-05 0.0
-6.149749799298852e-05 0.0
-6.094050435009729e-05 0.0
-6.038587646267674e-05 0.0
-5.983566019062573e-05 0.0
-5.928967229265803e-05 0.0
-5.874774777978549e-05 0.0
-5.820933647028961e-05 0.0
-5.767452171014399e-05 0.0
-5.714309354519698e-05 0.0
-5.661525791185883e-05 0.0
-5.6090637467013393e-05 0.0
-5.556916020865074e-05 0.0
-5.505089986524781e-05 0.0
-5.453587853981866e-05 0.0
-5.4024002427769706e-05 0.0
-5.3513409165967764e-05 0.0
-5.300667520720277e-05 0.0
-5.250297832685964e-05 0.0
-5.2002314866009663e-05 0.0
-5.150552922296698e-05 0.0
-5.100979409728914e-05 0.0
-5.051725503400019e-05 0.0
-5.002796659788703e-05 0.0
-4.954184923914372e-05 0.0
-4.9058761628840525e-05 0.0
-4.8579369714774505e-05 0.0
-4.810315602819778e-05 0.0
-4.7630315089824135e-05 0.0
-4.716075333174265e-05 0.0
-4.6694672030366316e-05 0.0
-4.623206123688693e-05 0.0
-4.5772735297747184e-05 0.0
-4.5317058261541425e-05 0.0
-4.486523874457321e-05 0.0
-4.441662070158112e-05 0.0
-4.397139461407569e-05 0.0
-4.3529882264127454e-05 0.0
-4.3091792664463375e-05 0.0
-4.2656875942630014e-05 0.0
-4.2225366671980515e-05 0.0
-4.179689274821912e-05 0.0
-4.137170072903372e-05 0.0
-4.094950378579766e-05 0.0
-4.053016882336788e-05 0.0
-4.011357112705653e-05 0.0
-3.969971052453171e-05 0.0
-3.928868506577382e-05 0.0
-3.8880275121889985e-05 0.0
-3.847427155908323e-05 0.0
-3.8070594282731525e-05 0.0
-3.766938411354118e-05 0.0
-3.7270496894011825e-05 0.0
-3.687368229581439e-05 0.0
-3.6479293478294436e-05 0.0
-3.6087163543779487e-05 0.0
-3.569727848434179e-05 0.0
-3.530950672917978e-05 0.0
-3.4923924983303904e-05 0.0
-3.454057554259133e-05 0.0
-3.4159303598272386e-05 0.0
-3.37804073943146e-05 0.0
-3.3403692293193765e-05 0.0
-3.302918648873552e-05 0.0
-3.265697141462563e-05 0.0
-3.228711104988157e-05 0.0
-3.191968254241681e-05 0.0
-3.1554574671322013e-05 0.0
-3.1191798495705164e-05 0.0
-3.083149608629785e-05 0.0
-3.0473623704357886e-05 0.0
-3.0118230423483932e-05 0.0
-2.9765303763929528e-05 0.0
-2.9414804603214923e-05 0.0
-2.9066704327718814e-05 0.0
-2.872108422419713e-05 0.0
-2.8377932557020195e-05 0.0
-2.8037242148912774e-05 0.0
-2.769804898960813e-05 0.0
-2.7361613002560836e-05 0.0
-2.7027468055719932e-05 0.0
-2.6695477625504052e-05 0.0
-2.6365611519221087e-05 0.0
-2.603782600421463e-05 0.0
-2.5712039770099158e-05 0.0
-2.5388121977723744e-05 0.0
-2.5066151621039753e-05 0.0
-2.4745941126689466e-05 0.0
-2.4427523049831574e-05 0.0
-2.4110864797171385e-05 0.0
-2.3795914598731936e-05 0.0
-2.3482656309354526e-05 0.0
-2.317111347467815e-05 0.0
-2.286096944606903e-05 0.0
-2.2552477000983143e-05 0.0
-2.224554590271295e-05 0.0
-2.194020741097561e-05 0.0
-2.1636398864559786e-05 0.0
-2.1334150005947997e-05 0.0
-2.1033535135437567e-05 0.0
-2.073446073551608e-05 0.0
-2.0437023146982006e-05 0.0
-2.0141273562898553e-05 0.0
-1.984721675123985e-05 0.0
-1.95548611309354e-05 0.0
-1.926427539701963e-05 0.0
-1.8975468796995737e-05 0.0
-1.868841902558722e-05 0.0
-1.8403418865854514e-05 0.0
-1.8120248171290558e-05 0.0
-1.7838977610491696e-05 0.0
-1.7559745630818755e-05 0.0
-1.7282590968987123e-05 0.0
-1.7007383616413936e-05 0.0
-1.673417685211306e-05 0.0
-1.6463046009843808e-05 0.0
-1.6194032829535017e-05 0.0
-1.5926968211671776e-05 0.0
-1.5661940576327115e-05 0.0
-1.5398831403679396e-05 0.0
-1.5137623291404359e-05 0.0
-1.4878510840649674e-05 0.0
-1.4621426351071214e-05 0.0
-1.4366180505860697e-05 0.0
-1.4112843040218972e-05 0.0
-1.3861321299857363e-05 0.0
-1.3611512275533637e-05 0.0
-1.3363429621562659e-05 0.0
-1.3116905030593992e-05 0.0
-1.2872036409407742e-05 0.0
-1.2628772193250579e-05 0.0
-1.2386962065514224e-05 0.0
-1.2146554093013382e-05 0.0
-1.1907588986891846e-05 0.0
-1.1670032698543734e-05 0.0
-1.1433714952429144e-05 0.0
-1.1198664120811276e-05 0.0
-1.0964789936234067e-05 0.0
-1.0732155324686145e-05 0.0
-1.0500723941564246e-05 0.0
-1.0270375506840842e-05 0.0
-1.0041195454757149e-05 0.0
-9.813332484469077e-06 0.0
-9.5863272649095e-06 0.0
-9.360552008375708e-06 0.0
-9.135976420368399e-06 0.0
-8.912649231974984e-06 0.0
-8.690472467815981e-06 0.0
-8.469447965160232e-06 0.0
-8.249756609850842e-06 0.0
-8.03139517780468e-06 0.0
-7.814437763891733e-06 0.0
-7.598977251815689e-06 0.0
-7.384690403806535e-06 0.0
-7.171924049201968e-06 0.0
-6.960705616800711e-06 0.0
-6.751043125423845e-06 0.0
-6.542900149095849e-06 0.0
-6.336451874936892e-06 0.0
-6.131626610521085e-06 0.0
-5.928424839632608e-06 0.0
-5.7269225198038286e-06 0.0
-5.5270999954174814e-06 0.0
-5.329046084724156e-06 0.0
-5.132781021600785e-06 0.0
-4.93827441847828e-06 0.0
-4.745351386596734e-06 0.0
-4.554282983606175e-06 0.0
-4.364944329150184e-06 0.0
-4.177378336619893e-06 0.0
-3.991429954664646e-06 0.0
-3.8071045164126743e-06 0.0
-3.624297319377379e-06 0.0
-3.4430856041507795e-06 0.0
-3.2634754108864514e-06 0.0
-3.0853143751322893e-06 0.0
-2.908471779413503e-06 0.0
-2.7329983587706065e-06 0.0
-2.558760708156125e-06 0.0
-2.3857820931653796e-06 0.0
-2.2139875937633534e-06 0.0
-2.043359589571967e-06 0.0
-1.8738119176371747e-06 0.0
-1.705298366410929e-06 0.0
-1.537812150901701e-06 0.0
-1.3712771092834017e-06 0.0
-1.2056349031718298e-06 0.0
-1.0408616685050215e-06 0.0
-8.769141671175804e-07 0.0
-7.138120556269922e-07 0.0
-5.515330988935989e-07 0.0
-3.8999941646061156e-07 0.0
-2.2922423601026474e-07 0.0
-6.930613332311193e-08 0.0
8.979161119218412e-08 0.0
2.4807831400309385e-07 0.0
4.054869892423506e-07 0.0
5.621195852182299e-07 0.0
7.17890149635467e-07 0.0
8.727330232110222e-07 0.0
1.0266617353518525e-06 0.0
1.1796571036768495e-06 0.0
1.3316017869527575e-06 0.0
1.4824135208352383e-06 0.0
1.6320444191323244e-06 0.0
1.7805003055211507e-06 0.0
1.9278061172491836e-06 0.0
2.0737166007948886e-06 0.0
2.366627416695811e-06 0.0
2.526072184411812e-06 0.0
2.697316764179588e-06 0.0
2.880893465260111e-06 0.0
3.0772594489266392e-06 0.0
3.286913937418458e-06 0.0
3.5101225395670155e-06 0.0
3.7470212761303126e-06 0.0
3.9978289285225515e-06 0.0
4.262415579678465e-06 0.0
4.5405043835294976e-06 0.0
4.832283641400136e-06 0.0
5.136554374951394e-06 0.0
5.45414944331999e-06 0.0
5.784208782669949e-06 0.0
6.125924606513958e-06 0.0
6.4765805094158215e-06 0.0
6.836106956017506e-06 0.0
7.199678074926908e-06 0.0
7.564978517275724e-06 0.0
7.922086036244721e-06 0.0
8.258279093579078e-06 0.0
8.554353921785406e-06 0.0
8.815264877418186e-06 0.0
9.020651787460858e-06 0.0
9.1812837654397e-06 0.0
9.294902613542806e-06 0.0
9.362513718036763e-06 0.0
9.37073688414582e-06 0.0
9.286583054070152e-06 0.0
9.082892565024438e-06 0.0
8.766348117063129e-06 0.0
8.36613900102112e-06 0.0
7.89535936023536e-06 0.0
7.315344907644788e-06 0.0
6.562432998890718e-06 0.0
5.672556421202395e-06 0.0
4.765928032309504e-06 0.0
3.8555956940361885e-06 0.0
2.8049032695814372e-06 0.0
1.6488068038308491e-06 0.0
7.115052709299973e-07 0.0
2.090678301271328e-07 0.0
3.2753197871142247e-08 0.0
1.787732579989314e-09 0.0
4.454421338461413e-11 0.0
-8.395799788699894e-12 0.0
-6.716759857246056e-12 0.0
2.719270872725819e-13 0.0
1.9743539350778359e-13 0.0
1.6201274846340357e-14 0.0
-2.1355044718121125e-14 0.0
1.1907822970971653e-14 0.0
-7.766286001755557e-15 0.0
2.337694814097207e-14 0.0
1.1570285118305198e-14 0.0
3.609104424441373e-15 0.0
-7.835140003796701e-16 0.0
3.8031145029072393e-16 0.0
7.912266538550134e-17 0.0
1.7075421649944632e-16 0.0
4.48548273013394e-16 0.0
5.519827293811729e-16 0.0
7.732811970118268e-17 0.0
-2.433258836022202e-16 0.0
-6.320894370640709e-16 0.0
-3.453806582766479e-16 0.0
3.7656378806360987e-16 0.0
-2.2944967627718195e-16 0.0
-3.091176210756701e-16 0.0
9.44189323910016e-16 0.0
6.582559007369865e-16 0.0
-2.0333726790009535e-15 0.0
9.172123467537937e-16 0.0
2.22819475132627e-15 0.0
-2.9577122993091445e-15 0.0
6.030555913816665e-16 0.0
1.5281015653258962e-15 0.0
-2.1225830899936127e-15 0.0
0.0 0.009234165287259483
0.0 0.02210978593046484
0.0 0.04006285207144346
0.0 0.06509563926307946
-3.2137266863051878e-15 0.1
-4.107352878162229e-15 0.1
4.7309861742523104e-14 0.1
-4.818856955825178e-14 0.1
0.0 0.09234095951657759
0.0 0.08526779443703315
0.0 0.07873568783499361
0.0 0.07270325358165694
0.0 0.06713226878990317
0.0 0.06198743331090837
0.0 0.05723615233795257
0.0 0.05284831692952603
0.0 0.04879612844994189
0.0 0.04505391065785001
0.0 0.04159795282713255
0.0 0.03840635724257661
0.0 0.035458901718227166
0.0 0.03273691087333747
0.0 0.030223137736036642
0.0 0.027901654838212067
0.0 0.025757753001945806
0.0 0.023777848352184508
0.0 0.021949395806934155
0.0 0.020260810259132886
0.0 0.018701392218929646
0.0 0.017261261619349554
0.0 0.015931293324032866
0.0 0.014703060505793857
0.0 0.01356878131038466
0.0 0.012521275583359677
0.0 0.01155383981305694
0.0 0.010660724663457298
0.0 0.009834809077136485
0.0 0.009074636035864277
0.0 0.008378021162768848
0.0 0.007738655594619468
0.0 0.007152631121912079
0.0 0.006615590109848964
0.0 0.00612394540033297
0.0 0.005676510018050092
0.0 0.005268582000711438
0.0 0.004898354945854349
0.0 0.004562619248985366
0.0 0.004258156898949408
0.0 0.00398256709805803
0.0 0.0037342299835684484
0.0 0.0035113471177583805
0.0 0.003311973825699916
0.0 0.003135028097937531
0.0 0.002977848793562125
0.0 0.0028398744738771203
0.0 0.00271986705217426
0.0 0.0026152910561921135
0.0 0.0025258800675667507
0.0 0.002451261542206726
0.0 0.0023881762030386355
0.0 0.0023360665639612925
0.0 0.0022942828513855132
0.0 0.0022604345526051253
0.0 0.0022340749848801054
0.0 0.002213944690115999
0.0 0.0021991833882903746
0.0 0.0021883261045749485
0.0 0.002180539322828637
0.0 0.002174744613660647
0.0 0.0021708417797858407
0.0 0.0021685727496592658
0.0 0.002166144015167163
0.0 0.002164750572758493
0.0 0.0021626407198518396
0.0 0.002160886794885719
0.0 0.002159015001059055
0.0 0.0021569834234849905
0.0 0.0021548286848704964
0.0 0.002152393802057467
0.0 0.0021498666311717124
0.0 0.0021471616477199158
0.0 0.0021443713106296704
0.0 0.002141470271710194
0.0 0.0021386184336171857
0.0 0.002135779033720626
0.0 0.0021329915661646476
0.0 0.002130266761495943
0.0 0.002127530464239473
0.0 0.002124883855665473
0.0 0.0021223596746641096
0.0 0.0021199781145947736
1.695965811624173e-05 0.004939610067908864