# vtk DataFile Version 3.0
Some data
ASCII
DATASET UNSTRUCTURED_GRID
POINTS 7930 float
0.0 0.0 0.0
0.0 10.0 0.0
10.0 10.0 0.0
10.0 0.0 0.0
0.5 0.0 0.0
0.0009999999999981016 0.0 0.0
0.001999999999996203 0.0 0.0
0.002999999999994305 0.0 0.0
0.003999999999992409 0.0 0.0
0.004999999999990531 0.0 0.0
0.005999999999988653 0.0 0.0
0.006999999999986775 0.0 0.0
0.007999999999984898 0.0 0.0
0.008999999999983018 0.0 0.0
0.009999999999981142 0.0 0.0
0.01099999999997926 0.0 0.0
0.01199999999997736 0.0 0.0
0.0129999999999754 0.0 0.0
0.01399999999997343 0.0 0.0
0.01499999999997147 0.0 0.0
0.01599999999996944 0.0 0.0
0.0169999999999673 0.0 0.0
0.01799999999996516 0.0 0.0
0.01899999999996302 0.0 0.0
0.01999999999996084 0.0 0.0
0.02099999999995862 0.0 0.0
0.02199999999995639 0.0 0.0
0.02299999999995417 0.0 0.0
0.02399999999995195 0.0 0.0
0.02499999999994972 0.0 0.0
0.0259999999999475 0.0 0.0
0.02699999999994527 0.0 0.0
0.02799999999994315 0.0 0.0
0.0289999999999411 0.0 0.0
0.02999999999993905 0.0 0.0
0.030999999999937 0.0 0.0
0.03199999999993521 0.0 0.0
0.0329999999999335 0.0 0.0
0.0339999999999318 0.0 0.0
0.03499999999993009 0.0 0.0
0.03599999999992853 0.0 0.0
0.036999999999927 0.0 0.0
0.03799999999992547 0.0 0.0
0.03899999999992394 0.0 0.0
0.03999999999992241 0.0 0.0
0.04099999999992088 0.0 0.0
0.04199999999991934 0.0 0.0
0.04299999999991782 0.0 0.0
0.04399999999991629 0.0 0.0
0.04499999999991475 0.0 0.0
0.04599999999991322 0.0 0.0
0.0469999999999117 0.0 0.0
0.04799999999991016 0.0 0.0
0.04899999999990863 0.0 0.0
0.0499999999999071 0.0 0.0
0.05099999999990557 0.0 0.0
0.05199999999990404 0.0 0.0
0.05299999999990251 0.0 0.0
0.05399999999990097 0.0 0.0
0.05499999999989943 0.0 0.0
0.05599999999989791 0.0 0.0
0.05699999999989638 0.0 0.0
0.05799999999989484 0.0 0.0
0.05899999999989317 0.0 0.0
0.05999999999989129 0.0 0.0
0.06099999999988941 0.0 0.0
0.06199999999988753 0.0 0.0
0.06299999999988531 0.0 0.0
0.06399999999988273 0.0 0.0
0.06499999999988015 0.0 0.0
0.06599999999987759 0.0 0.0
0.0669999999998748 0.0 0.0
0.06799999999987189 0.0 0.0
0.06899999999986897 0.0 0.0
0.06999999999986604 0.0 0.0
0.07099999999986313 0.0 0.0
0.0719999999998602 0.0 0.0
0.07299999999985729 0.0 0.0
0.07399999999985438 0.0 0.0
0.07499999999985145 0.0 0.0
0.07599999999984854 0.0 0.0
0.07699999999984562 0.0 0.0
0.0779999999998427 0.0 0.0
0.07899999999983978 0.0 0.0
0.07999999999983685 0.0 0.0
0.08099999999983394 0.0 0.0
0.08199999999983103 0.0 0.0
0.0829999999998281 0.0 0.0
0.08399999999982519 0.0 0.0
0.08499999999982226 0.0 0.0
0.08599999999981935 0.0 0.0
0.08699999999981643 0.0 0.0
0.0879999999998135 0.0 0.0
0.08899999999981059 0.0 0.0
0.08999999999980766 0.0 0.0
0.09099999999980475 0.0 0.0
0.09199999999980184 0.0 0.0
0.09299999999979891 0.0 0.0
0.093999999999796 0.0 0.0
0.09499999999979307 0.0 0.0
0.09599999999979016 0.0 0.0
0.09699999999978724 0.0 0.0
0.09799999999978432 0.0 0.0
0.0989999999997814 0.0 0.0
0.09999999999977847 0.0 0.0
0.1009999999997756 0.0 0.0
0.1019999999997726 0.0 0.0
0.1029999999997697 0.0 0.0
0.1039999999997668 0.0 0.0
0.1049999999997639 0.0 0.0
0.105999999999761 0.0 0.0
0.106999999999758 0.0 0.0
0.1079999999997551 0.0 0.0
0.1089999999997522 0.0 0.0
0.1099999999997493 0.0 0.0
0.1109999999997464 0.0 0.0
0.1119999999997434 0.0 0.0
0.1129999999997405 0.0 0.0
0.1139999999997376 0.0 0.0
0.1149999999997347 0.0 0.0
0.1159999999997318 0.0 0.0
0.1169999999997288 0.0 0.0
0.1179999999997259 0.0 0.0
0.118999999999723 0.0 0.0
0.1199999999997201 0.0 0.0
0.1209999999997172 0.0 0.0
0.1219999999997143 0.0 0.0
0.1229999999997113 0.0 0.0
0.1239999999997084 0.0 0.0
0.1249999999997055 0.0 0.0
0.1259999999997026 0.0 0.0
0.1269999999996997 0.0 0.0
0.1279999999996967 0.0 0.0
0.1289999999996938 0.0 0.0
0.1299999999996909 0.0 0.0
0.130999999999688 0.0 0.0
0.1319999999996851 0.0 0.0
0.1329999999996822 0.0 0.0
0.1339999999996792 0.0 0.0
0.1349999999996764 0.0 0.0
0.1359999999996734 0.0 0.0
0.1369999999996705 0.0 0.0
0.1379999999996676 0.0 0.0
0.1389999999996647 0.0 0.0
0.1399999999996618 0.0 0.0
0.1409999999996588 0.0 0.0
0.1419999999996559 0.0 0.0
0.142999999999653 0.0 0.0
0.1439999999996501 0.0 0.0
0.1449999999996472 0.0 0.0
0.1459999999996442 0.0 0.0
0.1469999999996414 0.0 0.0
0.1479999999996384 0.0 0.0
0.1489999999996355 0.0 0.0
0.1499999999996326 0.0 0.0
0.1509999999996297 0.0 0.0
0.1519999999996268 0.0 0.0
0.1529999999996239 0.0 0.0
0.1539999999996209 0.0 0.0
0.154999999999618 0.0 0.0
0.1559999999996151 0.0 0.0
0.1569999999996122 0.0 0.0
0.1579999999996093 0.0 0.0
0.1589999999996064 0.0 0.0
0.1599999999996035 0.0 0.0
0.1609999999996005 0.0 0.0
0.1619999999995976 0.0 0.0
0.1629999999995947 0.0 0.0
0.1639999999995918 0.0 0.0
0.1649999999995889 0.0 0.0
0.165999999999586 0.0 0.0
0.1669999999995831 0.0 0.0
0.1679999999995801 0.0 0.0
0.1689999999995772 0.0 0.0
0.1699999999995743 0.0 0.0
0.1709999999995714 0.0 0.0
0.1719999999995685 0.0 0.0
0.1729999999995655 0.0 0.0
0.1739999999995626 0.0 0.0
0.1749999999995597 0.0 0.0
0.1759999999995568 0.0 0.0
0.1769999999995539 0.0 0.0
0.177999999999551 0.0 0.0
0.178999999999548 0.0 0.0
0.1799999999995451 0.0 0.0
0.1809999999995422 0.0 0.0
0.1819999999995393 0.0 0.0
0.1829999999995364 0.0 0.0
0.1839999999995335 0.0 0.0
0.1849999999995305 0.0 0.0
0.1859999999995277 0.0 0.0
0.1869999999995247 0.0 0.0
0.1879999999995218 0.0 0.0
0.1889999999995189 0.0 0.0
0.189999999999516 0.0 0.0
0.1909999999995131 0.0 0.0
0.1919999999995101 0.0 0.0
0.1929999999995072 0.0 0.0
0.1939999999995043 0.0 0.0
0.1949999999995014 0.0 0.0
0.1959999999994985 0.0 0.0
0.1969999999994956 0.0 0.0
0.1979999999994927 0.0 0.0
0.1989999999994897 0.0 0.0
0.1999999999994868 0.0 0.0
0.2009999999994839 0.0 0.0
0.201999999999481 0.0 0.0
0.2029999999994781 0.0 0.0
0.2039999999994752 0.0 0.0
0.2049999999994722 0.0 0.0
0.2059999999994693 0.0 0.0
0.2069999999994664 0.0 0.0
0.2079999999994635 0.0 0.0
0.2089999999994606 0.0 0.0
0.2099999999994577 0.0 0.0
0.2109999999994548 0.0 0.0
0.2119999999994518 0.0 0.0
0.2129999999994489 0.0 0.0
0.213999999999446 0.0 0.0
0.2149999999994431 0.0 0.0
0.2159999999994402 0.0 0.0
0.2169999999994373 0.0 0.0
0.2179999999994343 0.0 0.0
0.2189999999994314 0.0 0.0
0.2199999999994285 0.0 0.0
0.2209999999994256 0.0 0.0
0.2219999999994227 0.0 0.0
0.2229999999994198 0.0 0.0
0.2239999999994168 0.0 0.0
0.2249999999994139 0.0 0.0
0.225999999999411 0.0 0.0
0.2269999999994081 0.0 0.0
0.2279999999994052 0.0 0.0
0.2289999999994023 0.0 0.0
0.2299999999993994 0.0 0.0
0.2309999999993964 0.0 0.0
0.2319999999993935 0.0 0.0
0.2329999999993906 0.0 0.0
0.2339999999993877 0.0 0.0
0.2349999999993848 0.0 0.0
0.2359999999993818 0.0 0.0
0.236999999999379 0.0 0.0
0.237999999999376 0.0 0.0
0.2389999999993731 0.0 0.0
0.2399999999993702 0.0 0.0
0.2409999999993673 0.0 0.0
0.2419999999993644 0.0 0.0
0.2429999999993615 0.0 0.0
0.2439999999993585 0.0 0.0
0.2449999999993556 0.0 0.0
0.2459999999993527 0.0 0.0
0.246999999999351 0.0 0.0
0.2479999999993495 0.0 0.0
0.248999999999348 0.0 0.0
0.2499999999993464 0.0 0.0
0.2509999999993477 0.0 0.0
0.2519999999993489 0.0 0.0
0.2529999999993502 0.0 0.0
0.2539999999993516 0.0 0.0
0.2549999999993542 0.0 0.0
0.2559999999993569 0.0 0.0
0.2569999999993595 0.0 0.0
0.2579999999993621 0.0 0.0
0.2589999999993647 0.0 0.0
0.2599999999993673 0.0 0.0
0.26099999999937 0.0 0.0
0.2619999999993726 0.0 0.0
0.2629999999993753 0.0 0.0
0.2639999999993779 0.0 0.0
0.2649999999993806 0.0 0.0
0.2659999999993832 0.0 0.0
0.2669999999993858 0.0 0.0
0.2679999999993884 0.0 0.0
0.2689999999993911 0.0 0.0
0.2699999999993937 0.0 0.0
0.2709999999993963 0.0 0.0
0.271999999999399 0.0 0.0
0.2729999999994017 0.0 0.0
0.2739999999994043 0.0 0.0
0.2749999999994069 0.0 0.0
0.2759999999994096 0.0 0.0
0.2769999999994122 0.0 0.0
0.2779999999994148 0.0 0.0
0.2789999999994174 0.0 0.0
0.2799999999994201 0.0 0.0
0.2809999999994228 0.0 0.0
0.2819999999994254 0.0 0.0
0.282999999999428 0.0 0.0
0.2839999999994306 0.0 0.0
0.2849999999994333 0.0 0.0
0.2859999999994359 0.0 0.0
0.2869999999994385 0.0 0.0
0.2879999999994411 0.0 0.0
0.2889999999994439 0.0 0.0
0.2899999999994465 0.0 0.0
0.2909999999994491 0.0 0.0
0.2919999999994517 0.0 0.0
0.2929999999994544 0.0 0.0
0.293999999999457 0.0 0.0
0.2949999999994596 0.0 0.0
0.2959999999994622 0.0 0.0
0.2969999999994649 0.0 0.0
0.2979999999994676 0.0 0.0
0.2989999999994702 0.0 0.0
0.2999999999994728 0.0 0.0
0.3009999999994754 0.0 0.0
0.3019999999994781 0.0 0.0
0.3029999999994807 0.0 0.0
0.3039999999994834 0.0 0.0
0.304999999999486 0.0 0.0
0.3059999999994886 0.0 0.0
0.3069999999994913 0.0 0.0
0.3079999999994939 0.0 0.0
0.3089999999994965 0.0 0.0
0.3099999999994992 0.0 0.0
0.3109999999995018 0.0 0.0
0.3119999999995045 0.0 0.0
0.3129999999995071 0.0 0.0
0.3139999999995097 0.0 0.0
0.3149999999995123 0.0 0.0
0.315999999999515 0.0 0.0
0.3169999999995176 0.0 0.0
0.3179999999995203 0.0 0.0
0.3189999999995229 0.0 0.0
0.3199999999995256 0.0 0.0
0.3209999999995282 0.0 0.0
0.3219999999995308 0.0 0.0
0.3229999999995334 0.0 0.0
0.323999999999536 0.0 0.0
0.3249999999995387 0.0 0.0
0.3259999999995414 0.0 0.0
0.326999999999544 0.0 0.0
0.3279999999995466 0.0 0.0
0.3289999999995493 0.0 0.0
0.3299999999995519 0.0 0.0
0.3309999999995545 0.0 0.0
0.3319999999995571 0.0 0.0
0.3329999999995598 0.0 0.0
0.3339999999995625 0.0 0.0
0.3349999999995651 0.0 0.0
0.3359999999995677 0.0 0.0
0.3369999999995703 0.0 0.0
0.337999999999573 0.0 0.0
0.3389999999995756 0.0 0.0
0.3399999999995783 0.0 0.0
0.3409999999995809 0.0 0.0
0.3419999999995835 0.0 0.0
0.3429999999995862 0.0 0.0
0.3439999999995888 0.0 0.0
0.3449999999995914 0.0 0.0
0.345999999999594 0.0 0.0
0.3469999999995967 0.0 0.0
0.3479999999995994 0.0 0.0
0.348999999999602 0.0 0.0
0.3499999999996046 0.0 0.0
0.3509999999996072 0.0 0.0
0.3519999999996099 0.0 0.0
0.3529999999996125 0.0 0.0
0.3539999999996151 0.0 0.0
0.3549999999996178 0.0 0.0
0.3559999999996205 0.0 0.0
0.3569999999996231 0.0 0.0
0.3579999999996257 0.0 0.0
0.3589999999996283 0.0 0.0
0.359999999999631 0.0 0.0
0.3609999999996336 0.0 0.0
0.3619999999996362 0.0 0.0
[...]
POINT_DATA 7930
SCALARS Disp float 2
LOOKUP_TABLE default
0.0 0.0004135038333757532
0.0 0.1
0.0 0.1
0.0 0.0
1.3854365196241627e-17 0.0
-6.959149829134817e-06 0.00041294088942757867
-1.3672515540813153e-05 0.0004107818853191749
-2.0144037318510006e-05 0.0004079502950003225
-2.7010291184100358e-05 0.0004050978586324982
-3.4054016929419356e-05 0.00040090164389469755
-4.11510840308072e-05 0.00039364337845993917
-4.760409395093061e-05 0.0003850887511975765
-5.389015710801205e-05 0.0003775323350509732
-6.091566761905006e-05 0.00036828477522614215
-6.77546451853579e-05 0.0003562557891585684
-7.419668675928839e-05 0.0003417577081559736
-8.083851110653995e-05 0.0003280036622814466
-8.82954949488697e-05 0.0003125065666909084
-9.532695602247748e-05 0.00029171120602172675
-0.00010201281938748142 0.0002669817056241504
-0.00010777478299646255 0.0002416042406130718
-0.00011550106608262348 0.0002112594657852732
-0.00012255843806006068 0.00016936212618544902
-0.00012706304084428565 0.00011063843617016922
-0.00011181584099205971 0.0
-9.248034702726295e-05 0.0
-8.105743048817159e-05 0.0
-7.27739155682549e-05 0.0
-6.630355158846573e-05 0.0
-6.126673874431319e-05 0.0
-5.65864873923318e-05 0.0
-5.269879440782171e-05 0.0
-4.9297253593457003e-05 0.0
-4.631495190735256e-05 0.0
-4.362372882765641e-05 0.0
-4.1202879263854626e-05 0.0
-3.899413782191655e-05 0.0
-3.698356250843166e-05 0.0
-3.513704433855561e-05 0.0
-3.340939379175282e-05 0.0
-3.1799974679810764e-05 0.0
-3.030006250112816e-05 0.0
-2.888547629691673e-05 0.0
-2.7558885598405006e-05 0.0
-2.6303567048304957e-05 0.0
-2.5115841092462208e-05 0.0
-2.3985966942289833e-05 0.0
-2.290264066531203e-05 0.0
-2.1866981615465338e-05 0.0
-2.0881748638975904e-05 0.0
-1.9938829547974737e-05 0.0
-1.904098050166985e-05 0.0
-1.8181480214123143e-05 0.0
-1.735804237700654e-05 0.0
-1.6567855763852267e-05 0.0
-1.5813691054355767e-05 0.0
-1.5094640016202953e-05 0.0
-1.440845724710151e-05 0.0
-1.3738636717077411e-05 0.0
-1.3106512772016782e-05 0.0
-1.2504068669034396e-05 0.0
-1.1929294987054108e-05 0.0
-1.1378477396553682e-05 0.0
-1.0852345657507495e-05 0.0
-1.0348062369740875e-05 0.0
-9.862824837346575e-06 0.0
-9.39720921648575e-06 0.0
-8.949397804458105e-06 0.0
-8.51730878798938e-06 0.0
-8.101254900290781e-06 0.0
-7.699865645115022e-06 0.0
-7.310755289140065e-06 0.0
-6.933364896152707e-06 0.0
-6.567787748114478e-06 0.0
-6.213166012189977e-06 0.0
-5.8675296138499144e-06 0.0
-5.531031221238586e-06 0.0
-5.203065127395336e-06 0.0
-4.882409594489811e-06 0.0
-4.569905142201033e-06 0.0
-4.265220408759556e-06 0.0
-3.967914393010162e-06 0.0
-3.677811791728896e-06 0.0
-3.394423688453427e-06 0.0
-3.1184485745696164e-06 0.0
-2.8495424505138297e-06 0.0
-2.5875859284005972e-06 0.0
-2.3328449669615224e-06 0.0
-2.0852870007535167e-06 0.0
-1.844555568912449e-06 0.0
-1.6113569686551134e-06 0.0
-1.3859577336760232e-06 0.0
-1.1683419580494392e-06 0.0
-9.58624486156851e-07 0.0
-7.567295325365133e-07 0.0
-5.632954512883184e-07 0.0
-3.7758413198453866e-07 0.0
-1.9990080491937865e-07 0.0
-3.018557634224936e-08 0.0
1.3151987531547125e-07 0.0
2.84458953026383e-07 0.0
4.2927530687418994e-07 0.0
5.654230783110834e-07 0.0
6.931896585035083e-07 0.0
8.139393109630155e-07 0.0
9.260112867919947e-07 0.0
1.0303758633056714e-06 0.0
1.1269267714234428e-06 0.0
1.215655807088939e-06 0.0
1.2964579242142513e-06 0.0
1.370255047361187e-06 0.0
1.4363460985110013e-06 0.0
1.4957370183336035e-06 0.0
1.5485863594307665e-06 0.0
1.5948644157463992e-06 0.0
1.6346020971790116e-06 0.0
1.6682427432452718e-06 0.0
1.6961635639023415e-06 0.0
1.7185198760091615e-06 0.0
1.7352804295406325e-06 0.0
1.7470178978602828e-06 0.0
1.7539738454830148e-06 0.0
1.7564826550492665e-06 0.0
1.7544988763882749e-06 0.0
1.7480826884062566e-06 0.0
1.7390401259249242e-06 0.0
1.7261292451762093e-06 0.0
1.7098292590713054e-06 0.0
1.690486491530763e-06 0.0
1.6687100876836342e-06 0.0
1.6442277569269827e-06 0.0
1.6173180582311814e-06 0.0
1.5885544309139168e-06 0.0
1.55794207342054e-06 0.0
1.5257756998266454e-06 0.0
1.4921105907622652e-06 0.0
1.4572319667258006e-06 0.0
1.4212779343713003e-06 0.0
1.3844323281996827e-06 0.0
1.3469372200871975e-06 0.0
1.3089149641438384e-06 0.0
1.2704479979681505e-06 0.0
1.2317406875165712e-06 0.0
1.192909766011537e-06 0.0
1.1540663564294567e-06 0.0
1.1153258081168647e-06 0.0
1.0767845421672024e-06 0.0
1.0385439232137228e-06 0.0
1.00069316758422e-06 0.0
9.633063218817464e-07 0.0
9.264609933499535e-07 0.0
8.902166169838423e-07 0.0
8.546076859215754e-07 0.0
8.196975507069844e-07 0.0
7.855610230107163e-07 0.0
7.522068682357542e-07 0.0
7.196839279966966e-07 0.0
6.880089883366092e-07 0.0
6.571900459880647e-07 0.0
6.272696363117412e-07 0.0
5.982063712079763e-07 0.0
5.702340491087466e-07 0.0
5.429808662438459e-07 0.0
5.167105028743531e-07 0.0
4.913802141642258e-07 0.0
4.66913365674011e-07 0.0
4.4350119978567153e-07 0.0
4.208004846503216e-07 0.0
3.990516494117073e-07 0.0
3.782131814329184e-07 0.0
3.582162611187623e-07 0.0
3.390657828092742e-07 0.0
3.207218150520075e-07 0.0
3.0317980375008375e-07 0.0
2.8642816840159815e-07 0.0
2.7042645023608953e-07 0.0
2.5519390279551404e-07 0.0
2.4067821381223084e-07 0.0
2.2683819826639704e-07 0.0
2.1367148539192717e-07 0.0
2.011697175106825e-07 0.0
1.8929695398412003e-07 0.0
1.780100666756062e-07 0.0
1.6731449247458162e-07 0.0
1.571863429282371e-07 0.0
1.4757818237810868e-07 0.0
1.3849894543880813e-07 0.0
1.2992751423218166e-07 0.0
1.2181134221583072e-07 0.0
1.1412805315320593e-07 0.0
1.0689057818018153e-07 0.0
1.000584669721952e-07 0.0
9.362004587847378e-08 0.0
8.756618999997821e-08 0.0
8.185270739612751e-08 0.0
7.647292196763342e-08 0.0
7.141858936098018e-08 0.0
6.66671328562846e-08 0.0
6.219987199795316e-08 0.0
5.80179976078389e-08 0.0
5.409126516758988e-08 0.0
5.0399947374358666e-08 0.0
4.6949657032780976e-08 0.0
4.37101009152379e-08 0.0
4.0681521853969766e-08 0.0
3.784554216509995e-08 0.0
3.518591138831124e-08 0.0
3.270590517748948e-08 0.0
3.039221915548038e-08 0.0
2.822763038495624e-08 0.0
2.6209158491308128e-08 0.0
2.4326169670887595e-08 0.0
2.2567904177316593e-08 0.0
2.092761129703425e-08 0.0
1.940062267451647e-08 0.0
1.798039747730593e-08 0.0
1.6656048731277106e-08 0.0
1.5423381125885035e-08 0.0
1.4278119240124833e-08 0.0
1.321013016103873e-08 0.0
1.22198965021107e-08 0.0
1.1298839957962661e-08 0.0
1.0444152637065827e-08 0.0
9.651471100477061e-09 0.0
8.915153571525408e-09 0.0
8.233132219593243e-09 0.0
7.600604260190713e-09 0.0
7.0137184408737415e-09 0.0
6.470023039048135e-09 0.0
5.966308027284826e-09 0.0
5.501167826688155e-09 0.0
5.070401810159621e-09 0.0
4.671694473950224e-09 0.0
4.303018529241947e-09 0.0
3.9610397320752634e-09 0.0
3.6458733196611015e-09 0.0
3.3553326829178173e-09 0.0
3.0863921065497736e-09 0.0
2.8383972725168745e-09 0.0
2.609895459276539e-09 0.0
2.3987663509850444e-09 0.0
2.2039241349678763e-09 0.0
2.024582600600432e-09 0.0
1.8592339227125278e-09 0.0
1.7067451077941834e-09 0.0
1.5664497210363987e-09 0.0
1.4374321190603729e-09 0.0
1.3182391359912361e-09 0.0
1.2087208281337754e-09 0.0
1.108219092775134e-09 0.0
1.0155070483355956e-09 0.0
9.305330432746031e-10 0.0
8.524051612502005e-10 0.0
7.80603213672456e-10 0.0
7.147595812490114e-10 0.0
6.542045605261263e-10 0.0
5.986222871883477e-10 0.0
5.477876250271542e-10 0.0
5.009945619137062e-10 0.0
4.5804185604735727e-10 0.0
4.1865734592579263e-10 0.0
3.8261967603025177e-10 0.0
3.4962101061409127e-10 0.0
3.194065422387805e-10 0.0
2.9171890700781766e-10 0.0
2.663775909687718e-10 0.0
2.4317974522382854e-10 0.0
2.2198820687608662e-10 0.0
2.0258398262090565e-10 0.0
1.8480812883726067e-10 0.0
1.685604793156953e-10 0.0
1.5371620424416238e-10 0.0
1.401266621688709e-10 0.0
1.2783239191684829e-10 0.0
1.1639370696654234e-10 0.0
1.0604589130067811e-10 0.0
9.658096292823867e-11 0.0
8.795430605119975e-11 0.0
8.007794833194011e-11 0.0
7.288397542314149e-11 0.0
6.633261398694474e-11 0.0
6.035889753383687e-11 0.0
5.49048990592648e-11 0.0
4.993715763190309e-11 0.0
4.539537509894711e-11 0.0
4.127139076037459e-11 0.0
3.7525814009028824e-11 0.0
3.410204545384552e-11 0.0
3.09857392954368e-11 0.0
2.814506132645788e-11 0.0
2.5559545241171506e-11 0.0
2.321170096961231e-11 0.0
2.1073206830123357e-11 0.0
1.912967367508121e-11 0.0
1.736261019289719e-11 0.0
1.575298867496261e-11 0.0
1.4285721369357254e-11 0.0
1.2959625690471797e-11 0.0
1.175286176798301e-11 0.0
1.0656410900115768e-11 0.0
9.659742911520572e-12 0.0
8.754753527378342e-12 0.0
7.933306426511925e-12 0.0
7.187499459707707e-12 0.0
6.511061219944465e-12 0.0
5.896411189815534e-12 0.0
5.339543185422509e-12 0.0
4.834359979546182e-12 0.0
4.376309589173105e-12 0.0
3.961290109217179e-12 0.0
3.5850110666163533e-12 0.0
3.2438119280901323e-12 0.0
2.934541495162024e-12 0.0
2.653753354006579e-12 0.0
2.3997797047282903e-12 0.0
2.1701040251213303e-12 0.0
1.9619457681185174e-12 0.0
1.7732623987775848e-12 0.0
1.6024699271491739e-12 0.0
1.4477430722665328e-12 0.0
1.3077003671783988e-12 0.0
1.1814286200045823e-12 0.0
1.0673426518205249e-12 0.0
9.641122704527134e-13 0.0
8.702833452076187e-13 0.0
7.855417389442439e-13 0.0
7.090981829714244e-13 0.0
6.396791863674355e-13 0.0
5.770254745876094e-13 0.0
5.206259853127169e-13 0.0
4.694246103420021e-13 0.0
4.233808011664157e-13 0.0
3.8176889628874934e-13 0.0
3.4418601655189636e-13 0.0
3.103788403881142e-13 0.0
2.797781537038076e-13 0.0
2.5215703064333543e-13 0.0
2.2722589620110636e-13 0.0
2.0475518145893025e-13 0.0
1.8446945263970909e-13 0.0
1.6616185447439614e-13 0.0
1.4963693207349248e-13 0.0
1.347152837557578e-13 0.0
1.2128927659722292e-13 0.0
1.091835814715474e-13 0.0
9.827350918312264e-14 0.0
8.842923462370006e-14 0.0
7.955735872316741e-14 0.0
7.157358274902018e-14 0.0
6.442047372692918e-14 0.0
5.793573956862595e-14 0.0
5.211663367155321e-14 0.0
4.6861768342204244e-14 0.0
4.211219410190258e-14 0.0
3.7858887431773305e-14 0.0
3.4050954175507026e-14 0.0
3.060065195514349e-14 0.0
2.7503379140704033e-14 0.0
2.4709968803843503e-14 0.0
2.219957914089121e-14 0.0
1.9956882767764894e-14 0.0
1.792413528798609e-14 0.0
1.609989290543214e-14 0.0
1.445858553505888e-14 0.0
1.2976704448050133e-14 0.0
1.1649949140092272e-14 0.0
1.0460522344621945e-14 0.0
9.388352497947976e-15 0.0
8.42598367014897e-15 0.0
7.561758335589518e-15 0.0
6.784906585548814e-15 0.0
6.088102893538604e-15 0.0
5.4626008603916425e-15 0.0
4.9004963974983995e-15 0.0
4.395794844303211e-15 0.0
3.941846537053e-15 0.0
3.5350920096427545e-15 0.0
3.1704156924085556e-15 0.0
2.8430572865509654e-15 0.0
2.5494966280636907e-15 0.0
2.286013669416308e-15 0.0
2.050193711803473e-15 0.0
1.838493827824086e-15 0.0
1.647342353511449e-15 0.0
1.4765679336471813e-15 0.0
1.3244483792014838e-15 0.0
1.1872399615057883e-15 0.0
1.0635629555159505e-15 0.0
9.535172641409075e-16 0.0
8.55133510593634e-16 0.0
7.666584485073064e-16 0.0
6.872820970574038e-16 0.0
6.162299973810182e-16 0.0
5.523002003492098e-16 0.0
4.952987950038456e-16 0.0
4.44507411410127e-16 0.0
3.987657741786233e-16 0.0
3.577865177440703e-16 0.0
3.2114734000887507e-16 0.0
2.881305659342097e-16 0.0
2.587883518014664e-16 0.0
2.3254680566174074e-16 0.0
2.0902489222591748e-16 0.0
1.8804496648016749e-16 0.0
1.6929276120944516e-16 0.0
1.5244458960344384e-16 0.0
1.3736902847395595e-16 0.0
1.2390726852298932e-16 0.0
1.118919840007665e-16 0.0
1.011442924808717e-16 0.0
9.153153180128441e-17 0.0
8.294725723125165e-17 0.0
7.52789372474849e-17 0.0
6.841940040639439e-17 0.0
6.229424695850341e-17 0.0
5.681897247466155e-17 0.0
5.191302059158276e-17 0.0
4.753385338235659e-17 0.0
4.362336306712657e-17 0.0
4.013029652275442e-17 0.0
3.7023592307433194e-17 0.0
3.4254626621738537e-17 0.0
3.177470450122364e-17 0.0
2.957347971373724e-17 0.0
2.7603647777572626e-17 0.0
2.5847439320684384e-17 0.0
2.4272679461362793e-17 0.0
2.2866493780441097e-17 0.0
2.1601693350432947e-17 0.0
2.0478797369226192e-17 0.0
1.947082851679818e-17 0.0
1.857982567271122e-17 0.0
1.7784185868739233e-17 0.0
1.7084866366697507e-17 0.0
1.6466525262691978e-17 0.0
1.592804770807838e-17 0.0
1.5455616129551016e-17 0.0
1.5049342107955165e-17 0.0
1.469758765574579e-17 0.0
1.438964851222838e-17 0.0
1.4123675814464455e-17 0.0
1.388936083526665e-17 0.0
1.3679301474224649e-17 0.0
1.3489764720431803e-17 0.0
1.3320028372666733e-17 0.0
1.3162054603381182e-17 0.0
1.3020662376508259e-17 0.0
1.2893097854798266e-17 0.0
1.2772540408067356e-17 0.0
1.266075513411256e-17 0.0
1.2556263884773835e-17 0.0
1.2460573147799287e-17 0.0
1.2371673181772683e-17 0.0
1.2293255320675698e-17 0.0
1.2222275644570402e-17 0.0
1.2153690211009246e-17 0.0
1.2094364998837611e-17 0.0
1.2043191051173341e-17 0.0
1.1997172115341004e-17 0.0
1.1957815480104656e-17 0.0
1.1929390073158346e-17 0.0
1.1910633277882347e-17 0.0
1.1915380450894875e-17 0.0
1.192653181543693e-17 0.0
1.1948120692303806e-17 0.0
1.1974941756507796e-17 0.0
1.2007277420720675e-17 0.0
1.2042378639229981e-17 0.0
1.208298649646561e-17 0.0
1.2126754053237707e-17 0.0
1.2174033204745285e-17 0.0
1.2223164015840934e-17 0.0
1.227548864125225e-17 0.0
1.2324472818012382e-17 0.0
1.2372045225903432e-17 0.0
1.2417092849822766e-17 0.0
1.2462374004442234e-17 0.0
1.2510088049231497e-17 0.0
1.2555125418960222e-17 0.0
1.2604752433059778e-17 0.0
1.2658998226649304e-17 0.0
1.2713761228545125e-17 0.0
1.2766272923669998e-17 0.0
1.2819087820011346e-17 0.0
1.286963990226663e-17 0.0
1.2916093100750576e-17 0.0
1.2962021993789079e-17 0.0
1.3010392119605935e-17 0.0
1.3056291789123203e-17 0.0
1.3098847998506763e-17 0.0
1.313831239233004e-17 0.0
1.3180491787815114e-17 0.0
1.3226299014325339e-17 0.0
1.3267837089155967e-17 0.0
1.330929154994761e-17 0.0
1.3354610250519677e-17 0.0
1.3402467331333133e-17 0.0
1.3449279319524602e-17 0.0
1.3501770460072622e-17 0.0
1.355634949979832e-17 0.0
1.3612397543778064e-17 0.0
1.367101193905032e-17 0.0
1.3730314255980208e-17 0.0
1.3795852379401285e-17 0.0
1.3909167737057527e-17 0.0
1.396958766386194e-17 0.0
1.403688691217236e-17 0.0
1.4103633082221287e-17 0.0
1.4178636985173256e-17 0.0
1.424826090025692e-17 0.0
1.432255515015808e-17 0.0
1.4403788561314387e-17 0.0
1.4473603707320877e-17 0.0
1.4553043819105828e-17 0.0
1.46488792188716e-17 0.0
1.4747661954784968e-17 0.0
1.4846297283206597e-17 0.0
1.4919649246812712e-17 0.0
1.497062953501584e-17 0.0
1.4962193650382432e-17 0.0
1.487572694228117e-17 0.0
1.4712682117495538e-17 0.0
1.449041761918594e-17 0.0
1.4275983411514225e-17 0.0
1.4093666771207445e-17 0.0
1.3989720146280815e-17 0.0
1.3934642484867018e-17 0.0
1.382067147032448e-17 0.0
1.3906514638558508e-17 0.0
1.410858976531314e-17 0.0
1.3995487933285253e-17 0.0
1.421372090782623e-17 0.0
1.5369784337385337e-17 0.0
1.7374202628298822e-17 0.0
1.863885088106839e-17 0.0
1.9742317374791936e-17 0.0
1.9164415538194713e-17 0.0
1.8175305949107824e-17 0.0
1.7572915273552834e-17 0.0
1.8979381437028533e-17 0.0
1.9664504857501378e-17 0.0
1.8015711867190924e-17 0.0
2.2163866265486815e-17 0.0
2.385102428001222e-17 0.0
2.735982333964848e-17 0.0
2.7933302906967395e-17 0.0
2.206669991893131e-17 0.0
2.1133612782909394e-17 0.0
2.3265324298999785e-17 0.0
2.2232414859066304e-17 0.0
3.4178043795178294e-17 0.0
3.259460767239464e-17 0.0
3.836490717091803e-17 0.0
3.885638535079966e-17 0.0
3.382879922215241e-17 0.0
2.6029019812435817e-17 0.0
4.433099876673786e-17 0.0
4.360197903731159e-17 0.0
3.901016053284312e-17 0.0
4.969595410186544e-17 0.0
3.3456162032250984e-17 0.0
5.245216060631089e-17 0.0
6.335071137233806e-17 0.0
5.776595962971964e-17 0.0
3.088537572485096e-17 0.0
6.801342720579335e-17 0.0
4.518195693419654e-17 0.0
3.3171275497108825e-17 0.0
5.658103323746705e-17 0.0
5.332323802193142e-17 0.0
3.131861508962977e-17 0.0
3.861331335844995e-17 0.0
2.633461012382998e-17 0.0
3.290367340856804e-17 0.0
1.9753168597562722e-17 0.0
1.9965168466857658e-17 0.0
4.436813976398711e-17 0.0
8.546633105161802e-18 0.0
3.0564151705179616e-17 0.0
2.295471858942211e-17 0.0
-9.941716403540608e-18 0.0
1.493791385651384e-17 0.0
-2.831029883345926e-18 0.0
0.0 0.009234165287256941
0.0 0.022109785930449367
0.0 0.04006285207153997
0.0 0.06509563926324931
-2.7847623579717534e-17 0.1
-3.329527275107822e-17 0.1
7.965095640578244e-17 0.1
-1.5502637478821926e-16 0.1
0.0 0.09234095951662498
0.0 0.08526779443703247
0.0 0.07873568783499428
0.0 0.07270325358170317
0.0 0.06713226878993493
0.0 0.06198743331091267
0.0 0.05723615233794654
0.0 0.05284831692951717
0.0 0.04879612844994237
0.0 0.04505391065784639
0.0 0.041597952827127437
0.0 0.03840635724257013
0.0 0.035458901718220984
0.0 0.03273691087332531
0.0 0.030223137736026768
0.0 0.027901654838202613
0.0 0.025757753001960548
0.0 0.023777848352114713
0.0 0.021949395807803137
0.0 0.020260810255894473
0.0 0.018701392223652604
0.0 0.01726126159503435
0.0 0.015931293336680464
0.0 0.014703060372940039
0.0 0.013568780782904313
0.0 0.012521267482861084
0.0 0.01155388341352348
0.0 0.010660499143843007
0.0 0.009835453922831305
0.0 0.009073520329637779
0.0 0.008369870608788842
0.0 0.0077200463033813204
0.0 0.007119930012359866
0.0 0.006565719473503319
0.0 0.006053903138567334
0.0 0.005581237991563729
0.0 0.005144729226039116
0.0 0.0047416110574881555
0.0 0.004369329279130264
0.0 0.0040255250443427945
0.0 0.003708020011723482
0.0 0.0034148024235019264
0.0 0.003144014422435645
0.0 0.00289394027973973
0.0 0.0026629956407428243
0.0 0.0024497186669867653
0.0 0.0022527661738148312
0.0 0.0020709294711872763
0.0 0.0019031452117015566
0.0 0.0017485401664155173
0.0 0.0016064348027603672
0.0 0.001476305501854421
0.0 0.0013572888190109937
0.0 0.0012485610491418558
0.0 0.0011493339181997612
0.0 0.0010588045884208487
0.0 0.0009763733655511708
0.0 0.0009017110024735303
0.0 0.0008344288106672334
0.0 0.0007739264201702106
0.0 0.0007195649882668209
0.0 0.0006709917540750028
0.0 0.0006278504290566348
0.0 0.0005897820720163621
0.0 0.0005567608005249238
0.0 0.0005279216393095119
0.0 0.0005034637372918687
0.0 0.0004830722245140053
0.0 0.00046641268851812883
0.0 0.000453294031926717
0.0 0.0004430385082309148
0.0 0.0004355874519820136
0.0 0.00043033411043212085
0.0 0.0004268674557371812
0.0 0.00042470554808867774
0.0 0.00042346143467454313
0.0 0.0004226740352341974
0.0 0.00042204522180318033
0.0 0.0004213346547557526
0.0 0.0004201505169066232
0.0 0.0004188274634208582
0.0 0.00041730318557963776
0.0 0.00041565042101779007
2.869815889478207e-17 0.0049272451326618704
1.5589222669707274e-18 0.0027738745973897223
1.5813785689747822e-08 0.0015359484518602726
5.076285539436565e-06 0.0009083245801597813
2.541922480480657e-13 0.0014042041054675154
7.972759391503855e-18 0.0022597849426047034
1.8567014913533313e-05 0.0005237540370799101
1.3244342939937239e-17 0.0012867734734088414
1.8996966279905225e-07 0.0007828494308845822
5.431844331479728e-10 0.0007701208193616595
7.492777037930933e-13 0.0007097590366888123
5.640975232816992e-16 0.0006767768962501269
-3.249424688823241e-17 0.014973736461409617
1.4216036174922183e-17 0.0006657294860763408
5.698111577937931e-06 0.0004440141764763655
1.3723683140384612e-06 0.00043935001482682746
1.8312081366530065e-17 0.0011704180815624396
2.8259068184774025e-05 0.00035829296752697793
1.6002577741865323e-07 0.0003917865647936428
7.708921613279956e-09 0.0004232458269624044
2.5647189503385786e-10 0.0004004930893898689
6.926007899741264e-12 0.0003772773710018909
1.6520170788838554e-13 0.00037799227368893475
1.610165151777461e-17 0.0006414990043901092
4.037154513380999e-15 0.00035247014978933807
6.040486987508579e-17 0.00039119165164138965
-1.6494040148954997e-17 0.04847397115433164
5.136413616263784e-06 0.00026011150639075874
2.1784436394971272e-06 0.00024081490452848169
1.379124510986508e-17 0.0003340075302638663
1.5614065368324945e-17 0.00039557321739699204
-6.067153267117001e-18 0.007989497114757195
1.6012367624966444e-17 0.003711834662427576
2.4793824687946493e-06 0.0002208657181641191
2.0332524821273043e-06 0.00023116872315914332
9.768492696691419e-07 0.00022206892355928158
3.598487496003379e-07 0.0002008874595580834
1.06658777910482e-07 0.0001993157724661179
2.1336306168450628e-08 0.00022296194965156627
3.800536776008349e-09 0.00021839922187356754