# vtk DataFile Version 3.0
Some data
ASCII
DATASET UNSTRUCTURED_GRID
POINTS 7930 float
0.0 0.0 0.0
0.0 10.0 0.0
10.0 10.0 0.0
10.0 0.0 0.0
0.5 0.0 0.0
0.0009999999999981016 0.0 0.0
0.001999999999996203 0.0 0.0
0.002999999999994305 0.0 0.0
0.003999999999992409 0.0 0.0
0.004999999999990531 0.0 0.0
0.005999999999988653 0.0 0.0
0.006999999999986775 0.0 0.0
0.007999999999984898 0.0 0.0
0.008999999999983018 0.0 0.0
0.009999999999981142 0.0 0.0
0.01099999999997926 0.0 0.0
0.01199999999997736 0.0 0.0
0.0129999999999754 0.0 0.0
0.01399999999997343 0.0 0.0
0.01499999999997147 0.0 0.0
0.01599999999996944 0.0 0.0
0.0169999999999673 0.0 0.0
0.01799999999996516 0.0 0.0
0.01899999999996302 0.0 0.0
0.01999999999996084 0.0 0.0
0.02099999999995862 0.0 0.0
0.02199999999995639 0.0 0.0
0.02299999999995417 0.0 0.0
0.02399999999995195 0.0 0.0
0.02499999999994972 0.0 0.0
0.0259999999999475 0.0 0.0
0.02699999999994527 0.0 0.0
0.02799999999994315 0.0 0.0
0.0289999999999411 0.0 0.0
0.02999999999993905 0.0 0.0
0.030999999999937 0.0 0.0
0.03199999999993521 0.0 0.0
0.0329999999999335 0.0 0.0
0.0339999999999318 0.0 0.0
0.03499999999993009 0.0 0.0
0.03599999999992853 0.0 0.0
0.036999999999927 0.0 0.0
0.03799999999992547 0.0 0.0
0.03899999999992394 0.0 0.0
0.03999999999992241 0.0 0.0
0.04099999999992088 0.0 0.0
0.04199999999991934 0.0 0.0
0.04299999999991782 0.0 0.0
0.04399999999991629 0.0 0.0
0.04499999999991475 0.0 0.0
0.04599999999991322 0.0 0.0
0.0469999999999117 0.0 0.0
0.04799999999991016 0.0 0.0
0.04899999999990863 0.0 0.0
0.0499999999999071 0.0 0.0
0.05099999999990557 0.0 0.0
0.05199999999990404 0.0 0.0
0.05299999999990251 0.0 0.0
0.05399999999990097 0.0 0.0
0.05499999999989943 0.0 0.0
0.05599999999989791 0.0 0.0
0.05699999999989638 0.0 0.0
0.05799999999989484 0.0 0.0
0.05899999999989317 0.0 0.0
0.05999999999989129 0.0 0.0
0.06099999999988941 0.0 0.0
0.06199999999988753 0.0 0.0
0.06299999999988531 0.0 0.0
0.06399999999988273 0.0 0.0
0.06499999999988015 0.0 0.0
0.06599999999987759 0.0 0.0
0.0669999999998748 0.0 0.0
0.06799999999987189 0.0 0.0
0.06899999999986897 0.0 0.0
0.06999999999986604 0.0 0.0
0.07099999999986313 0.0 0.0
0.0719999999998602 0.0 0.0
0.07299999999985729 0.0 0.0
0.07399999999985438 0.0 0.0
0.07499999999985145 0.0 0.0
0.07599999999984854 0.0 0.0
0.07699999999984562 0.0 0.0
0.0779999999998427 0.0 0.0
0.07899999999983978 0.0 0.0
0.07999999999983685 0.0 0.0
0.08099999999983394 0.0 0.0
0.08199999999983103 0.0 0.0
0.0829999999998281 0.0 0.0
0.08399999999982519 0.0 0.0
0.08499999999982226 0.0 0.0
0.08599999999981935 0.0 0.0
0.08699999999981643 0.0 0.0
0.0879999999998135 0.0 0.0
0.08899999999981059 0.0 0.0
0.08999999999980766 0.0 0.0
0.09099999999980475 0.0 0.0
0.09199999999980184 0.0 0.0
0.09299999999979891 0.0 0.0
0.093999999999796 0.0 0.0
0.09499999999979307 0.0 0.0
0.09599999999979016 0.0 0.0
0.09699999999978724 0.0 0.0
0.09799999999978432 0.0 0.0
0.0989999999997814 0.0 0.0
0.09999999999977847 0.0 0.0
0.1009999999997756 0.0 0.0
0.1019999999997726 0.0 0.0
0.1029999999997697 0.0 0.0
0.1039999999997668 0.0 0.0
0.1049999999997639 0.0 0.0
0.105999999999761 0.0 0.0
0.106999999999758 0.0 0.0
0.1079999999997551 0.0 0.0
0.1089999999997522 0.0 0.0
0.1099999999997493 0.0 0.0
0.1109999999997464 0.0 0.0
0.1119999999997434 0.0 0.0
0.1129999999997405 0.0 0.0
0.1139999999997376 0.0 0.0
0.1149999999997347 0.0 0.0
0.1159999999997318 0.0 0.0
0.1169999999997288 0.0 0.0
0.1179999999997259 0.0 0.0
0.118999999999723 0.0 0.0
0.1199999999997201 0.0 0.0
0.1209999999997172 0.0 0.0
0.1219999999997143 0.0 0.0
0.1229999999997113 0.0 0.0
0.1239999999997084 0.0 0.0
0.1249999999997055 0.0 0.0
0.1259999999997026 0.0 0.0
0.1269999999996997 0.0 0.0
0.1279999999996967 0.0 0.0
0.1289999999996938 0.0 0.0
0.1299999999996909 0.0 0.0
0.130999999999688 0.0 0.0
0.1319999999996851 0.0 0.0
0.1329999999996822 0.0 0.0
0.1339999999996792 0.0 0.0
0.1349999999996764 0.0 0.0
0.1359999999996734 0.0 0.0
0.1369999999996705 0.0 0.0
0.1379999999996676 0.0 0.0
0.1389999999996647 0.0 0.0
0.1399999999996618 0.0 0.0
0.1409999999996588 0.0 0.0
0.1419999999996559 0.0 0.0
0.142999999999653 0.0 0.0
0.1439999999996501 0.0 0.0
0.1449999999996472 0.0 0.0
0.1459999999996442 0.0 0.0
0.1469999999996414 0.0 0.0
0.1479999999996384 0.0 0.0
0.1489999999996355 0.0 0.0
0.1499999999996326 0.0 0.0
0.1509999999996297 0.0 0.0
0.1519999999996268 0.0 0.0
0.1529999999996239 0.0 0.0
0.1539999999996209 0.0 0.0
0.154999999999618 0.0 0.0
0.1559999999996151 0.0 0.0
0.1569999999996122 0.0 0.0
0.1579999999996093 0.0 0.0
0.1589999999996064 0.0 0.0
0.1599999999996035 0.0 0.0
0.1609999999996005 0.0 0.0
0.1619999999995976 0.0 0.0
0.1629999999995947 0.0 0.0
0.1639999999995918 0.0 0.0
0.1649999999995889 0.0 0.0
0.165999999999586 0.0 0.0
0.1669999999995831 0.0 0.0
0.1679999999995801 0.0 0.0
0.1689999999995772 0.0 0.0
0.1699999999995743 0.0 0.0
0.1709999999995714 0.0 0.0
0.1719999999995685 0.0 0.0
0.1729999999995655 0.0 0.0
0.1739999999995626 0.0 0.0
0.1749999999995597 0.0 0.0
0.1759999999995568 0.0 0.0
0.1769999999995539 0.0 0.0
0.177999999999551 0.0 0.0
0.178999999999548 0.0 0.0
0.1799999999995451 0.0 0.0
0.1809999999995422 0.0 0.0
0.1819999999995393 0.0 0.0
0.1829999999995364 0.0 0.0
0.1839999999995335 0.0 0.0
0.1849999999995305 0.0 0.0
0.1859999999995277 0.0 0.0
0.1869999999995247 0.0 0.0
0.1879999999995218 0.0 0.0
0.1889999999995189 0.0 0.0
0.189999999999516 0.0 0.0
0.1909999999995131 0.0 0.0
0.1919999999995101 0.0 0.0
0.1929999999995072 0.0 0.0
0.1939999999995043 0.0 0.0
0.1949999999995014 0.0 0.0
0.1959999999994985 0.0 0.0
0.1969999999994956 0.0 0.0
0.1979999999994927 0.0 0.0
0.1989999999994897 0.0 0.0
0.1999999999994868 0.0 0.0
0.2009999999994839 0.0 0.0
0.201999999999481 0.0 0.0
0.2029999999994781 0.0 0.0
0.2039999999994752 0.0 0.0
0.2049999999994722 0.0 0.0
0.2059999999994693 0.0 0.0
0.2069999999994664 0.0 0.0
0.2079999999994635 0.0 0.0
0.2089999999994606 0.0 0.0
0.2099999999994577 0.0 0.0
0.2109999999994548 0.0 0.0
0.2119999999994518 0.0 0.0
0.2129999999994489 0.0 0.0
0.213999999999446 0.0 0.0
0.2149999999994431 0.0 0.0
0.2159999999994402 0.0 0.0
0.2169999999994373 0.0 0.0
0.2179999999994343 0.0 0.0
0.2189999999994314 0.0 0.0
0.2199999999994285 0.0 0.0
0.2209999999994256 0.0 0.0
0.2219999999994227 0.0 0.0
0.2229999999994198 0.0 0.0
0.2239999999994168 0.0 0.0
0.2249999999994139 0.0 0.0
0.225999999999411 0.0 0.0
0.2269999999994081 0.0 0.0
0.2279999999994052 0.0 0.0
0.2289999999994023 0.0 0.0
0.2299999999993994 0.0 0.0
0.2309999999993964 0.0 0.0
0.2319999999993935 0.0 0.0
0.2329999999993906 0.0 0.0
0.2339999999993877 0.0 0.0
0.2349999999993848 0.0 0.0
0.2359999999993818 0.0 0.0
0.236999999999379 0.0 0.0
0.237999999999376 0.0 0.0
0.2389999999993731 0.0 0.0
0.2399999999993702 0.0 0.0
0.2409999999993673 0.0 0.0
0.2419999999993644 0.0 0.0
0.2429999999993615 0.0 0.0
0.2439999999993585 0.0 0.0
0.2449999999993556 0.0 0.0
0.2459999999993527 0.0 0.0
0.246999999999351 0.0 0.0
0.2479999999993495 0.0 0.0
0.248999999999348 0.0 0.0
0.2499999999993464 0.0 0.0
0.2509999999993477 0.0 0.0
0.2519999999993489 0.0 0.0
0.2529999999993502 0.0 0.0
0.2539999999993516 0.0 0.0
0.2549999999993542 0.0 0.0
0.2559999999993569 0.0 0.0
0.2569999999993595 0.0 0.0
0.2579999999993621 0.0 0.0
0.2589999999993647 0.0 0.0
0.2599999999993673 0.0 0.0
0.26099999999937 0.0 0.0
0.2619999999993726 0.0 0.0
0.2629999999993753 0.0 0.0
0.2639999999993779 0.0 0.0
0.2649999999993806 0.0 0.0
0.2659999999993832 0.0 0.0
0.2669999999993858 0.0 0.0
0.2679999999993884 0.0 0.0
0.2689999999993911 0.0 0.0
0.2699999999993937 0.0 0.0
0.2709999999993963 0.0 0.0
0.271999999999399 0.0 0.0
0.2729999999994017 0.0 0.0
0.2739999999994043 0.0 0.0
0.2749999999994069 0.0 0.0
0.2759999999994096 0.0 0.0
0.2769999999994122 0.0 0.0
0.2779999999994148 0.0 0.0
0.2789999999994174 0.0 0.0
0.2799999999994201 0.0 0.0
0.2809999999994228 0.0 0.0
0.2819999999994254 0.0 0.0
0.282999999999428 0.0 0.0
0.2839999999994306 0.0 0.0
0.2849999999994333 0.0 0.0
0.2859999999994359 0.0 0.0
0.2869999999994385 0.0 0.0
0.2879999999994411 0.0 0.0
0.2889999999994439 0.0 0.0
0.2899999999994465 0.0 0.0
0.2909999999994491 0.0 0.0
0.2919999999994517 0.0 0.0
0.2929999999994544 0.0 0.0
0.293999999999457 0.0 0.0
0.2949999999994596 0.0 0.0
0.2959999999994622 0.0 0.0
0.2969999999994649 0.0 0.0
0.2979999999994676 0.0 0.0
0.2989999999994702 0.0 0.0
0.2999999999994728 0.0 0.0
0.3009999999994754 0.0 0.0
0.3019999999994781 0.0 0.0
0.3029999999994807 0.0 0.0
0.3039999999994834 0.0 0.0
0.304999999999486 0.0 0.0
0.3059999999994886 0.0 0.0
0.3069999999994913 0.0 0.0
0.3079999999994939 0.0 0.0
0.3089999999994965 0.0 0.0
0.3099999999994992 0.0 0.0
0.3109999999995018 0.0 0.0
0.3119999999995045 0.0 0.0
0.3129999999995071 0.0 0.0
0.3139999999995097 0.0 0.0
0.3149999999995123 0.0 0.0
0.315999999999515 0.0 0.0
0.3169999999995176 0.0 0.0
0.3179999999995203 0.0 0.0
0.3189999999995229 0.0 0.0
0.3199999999995256 0.0 0.0
0.3209999999995282 0.0 0.0
0.3219999999995308 0.0 0.0
0.3229999999995334 0.0 0.0
0.323999999999536 0.0 0.0
0.3249999999995387 0.0 0.0
0.3259999999995414 0.0 0.0
0.326999999999544 0.0 0.0
0.3279999999995466 0.0 0.0
0.3289999999995493 0.0 0.0
0.3299999999995519 0.0 0.0
0.3309999999995545 0.0 0.0
0.3319999999995571 0.0 0.0
0.3329999999995598 0.0 0.0
0.3339999999995625 0.0 0.0
0.3349999999995651 0.0 0.0
0.3359999999995677 0.0 0.0
0.3369999999995703 0.0 0.0
0.337999999999573 0.0 0.0
0.3389999999995756 0.0 0.0
0.3399999999995783 0.0 0.0
0.3409999999995809 0.0 0.0
0.3419999999995835 0.0 0.0
0.3429999999995862 0.0 0.0
0.3439999999995888 0.0 0.0
0.3449999999995914 0.0 0.0
0.345999999999594 0.0 0.0
0.3469999999995967 0.0 0.0
0.3479999999995994 0.0 0.0
0.348999999999602 0.0 0.0
0.3499999999996046 0.0 0.0
0.3509999999996072 0.0 0.0
0.3519999999996099 0.0 0.0
0.3529999999996125 0.0 0.0
0.3539999999996151 0.0 0.0
0.3549999999996178 0.0 0.0
0.3559999999996205 0.0 0.0
0.3569999999996231 0.0 0.0
0.3579999999996257 0.0 0.0
0.3589999999996283 0.0 0.0
0.359999999999631 0.0 0.0
0.3609999999996336 0.0 0.0
0.3619999999996362 0.0 0.0
[...]
POINT_DATA 7930
SCALARS Disp float 2
LOOKUP_TABLE default
0.0 0.0019283165752317065
0.0 0.1
0.0 0.1
0.0 0.0
6.789020339400558e-06 0.0
-6.87252825929961e-06 0.0019282149347736631
-1.3667149577130372e-05 0.0019276804775376466
-2.0444739826043556e-05 0.0019272035739028792
-2.739996216173384e-05 0.001926670456834351
-3.421240198952185e-05 0.0019253746171847103
-4.085377707445549e-05 0.0019236361689846215
-4.7739713105178285e-05 0.0019227333226453523
-5.490153314365261e-05 0.0019216480402307616
-6.169007718415459e-05 0.0019187746688995551
-6.79862690242636e-05 0.0019155481281681016
-7.455712163524049e-05 0.0019142596980173433
-8.213834090808872e-05 0.0019129378577111768
-8.938189185692238e-05 0.001909096479596492
-9.563339380411643e-05 0.0019043425541284886
-0.00010202226046852712 0.001901674034007218
-0.00010936075260484502 0.0018997461783875648
-0.00011677415199733429 0.0018951454570028535
-0.00012296632856420987 0.001889266694230195
-0.00012916892272433597 0.0018856622408167977
-0.0001366916722940019 0.0018833317798952953
-0.000144183589657938 0.0018773142780756
-0.00015026155390348878 0.0018699715233507638
-0.00015627217484058875 0.0018655183635622123
-0.0001637285450397638 0.0018624928594089475
-0.00017146744673149665 0.0018559680960373627
-0.00017765634545950898 0.0018471090433723584
-0.00018381151867352403 0.001841479354136689
-0.00019120630887278593 0.0018374450300249724
-0.00019874927557322027 0.0018300608358222633
-0.00020496853832647913 0.0018201351305759746
-0.0002108730255250166 0.001812978606543195
-0.0002180109048870457 0.0018082922253469414
-0.00022575584164671303 0.001800271448456268
-0.00023214627647056817 0.0017889545791582163
-0.0002381214399957123 0.001780806700632234
-0.0002454521781224466 0.0017752906812273106
-0.0002533267472682451 0.0017661185778097654
-0.000259832252379726 0.0017531737979970378
-0.000265639573513023 0.0017432835034388607
-0.00027284929288692264 0.0017367777108854888
-0.00028083133957924764 0.0017265361779550939
-0.0002872691784882521 0.0017120776102311553
-0.00029303097097742965 0.0017009165205561293
-0.0003001530192236767 0.0016934211328494362
-0.00030832578038121714 0.0016823925645349188
-0.0003151907984049267 0.0016662816652404976
-0.00032066541672920646 0.001652734032902544
-0.0003275589370024125 0.0016437768781496292
-0.00033570367335248127 0.0016314466447859425
-0.00034246991992016335 0.0016139156431735839
-0.00034784671822661665 0.0015988255149022815
-0.0003545876079455243 0.0015885164909267594
-0.0003629424076609275 0.001575408805189424
-0.0003700655993675302 0.001555884206285062
-0.00037528979533952065 0.0015388235173481857
-0.0003817854983854179 0.0015269941429900875
-0.0003900285934497737 0.0015123690647100788
-0.00039742989439189706 0.001491246601122132
-0.0004027628089971723 0.001471582328833965
-0.0004091763241762208 0.0014573889985855333
-0.0004172057972573883 0.0014410267208008005
-0.00042414314932678714 0.0014180798010818237
-0.0004295409669723968 0.0013964112172177047
-0.000435814768847199 0.001380252124080277
-0.0004441728213331456 0.0013619660162128581
-0.0004514669116703014 0.0013365233728832883
-0.00045690783412847614 0.001311582103961468
-0.0004629264388403124 0.0012925284180252685
-0.0004711103287072936 0.0012717645559348059
-0.00047843906800244877 0.00124349606207517
-0.00048393808279389186 0.001215018966185166
-0.0004898683873163273 0.0011927228280328246
-0.000497910874939648 0.0011690765068828606
-0.0005056676430095518 0.001137434265515332
-0.0005113644636463349 0.001104717926757422
-0.0005173132434499399 0.0010778318546415906
-0.000525774736758048 0.0010496429772558521
-0.0005335061455096043 0.0010125941260051854
-0.0005390617002171402 0.0009734496241447757
-0.0005444325510888774 0.0009399365578566074
-0.0005525745875229361 0.0009053429894645423
-0.0005608228075548281 0.0008612928482411723
-0.0005666738872837571 0.0008130727890571967
-0.0005723226738359725 0.0007693711598941697
-0.0005793411255190412 0.0007240147772013282
-0.0005872542025651394 0.0006663450338490113
-0.0005924748096318828 0.0006015334691017649
-0.0005974555349652316 0.0005374462597737838
-0.0006054980581699878 0.0004633899825775909
-0.0006096161921694264 0.00036596421610696884
-0.0006059212631997907 0.00023485598125576212
-0.0005724698159442526 0.0
-0.0005315296008813744 0.0
-0.0004962658673354813 0.0
-0.0004726124220104286 0.0
-0.0004536682120323146 0.0
-0.00043666530152189527 0.0
-0.0004222269246324559 0.0
-0.00040915721376651816 0.0
-0.00039737350053388384 0.0
-0.00038662798464198433 0.0
-0.000376744265304046 0.0
-0.00036757824186492443 0.0
-0.00035904468075688656 0.0
-0.00035102215605008365 0.0
-0.0003433582361153673 0.0
-0.00033617555713619295 0.0
-0.0003294858013411856 0.0
-0.00032290096919049575 0.0
-0.00031671908889460264 0.0
-0.00031084062291300286 0.0
-0.0003051769889755992 0.0
-0.0002997594120019298 0.0
-0.00029456124096981717 0.0
-0.00028953317305244246 0.0
-0.00028469675901900604 0.0
-0.00028004511405202773 0.0
-0.0002755554641273716 0.0
-0.00027125650869138317 0.0
-0.0002669926449566618 0.0
-0.00026292418547623506 0.0
-0.0002589568543130922 0.0
-0.0002551259717310766 0.0
-0.00025136844530978744 0.0
-0.0002477351028515186 0.0
-0.00024419527598268105 0.0
-0.00024074656333459256 0.0
-0.00023738546904255174 0.0
-0.00023411368379343866 0.0
-0.00023092449360724 0.0
-0.0002278117032858354 0.0
-0.0002247713730318223 0.0
-0.00022181461685653 0.0
-0.000218940881120198 0.0
-0.0002160980134029014 0.0
-0.0002133394834250738 0.0
-0.00021063263401646927 0.0
-0.00020798605149008272 0.0
-0.00020539121115896924 0.0
-0.00020284857784718944 0.0
-0.00020035928021703412 0.0
-0.0001979200899563251 0.0
-0.0001955277006472233 0.0
-0.00019317464904141198 0.0
-0.0001908678611324281 0.0
-0.00018860480862054862 0.0
-0.00018638098645090622 0.0
-0.0001842004448712846 0.0
-0.00018205918287033678 0.0
-0.0001799536180388546 0.0
-0.00017788621643663534 0.0
-0.00017585660972615195 0.0
-0.00017386080682684057 0.0
-0.00017189897780530073 0.0
-0.00016997464599811092 0.0
-0.0001680892452831151 0.0
-0.00016622243464180125 0.0
-0.00016440074544416515 0.0
-0.00016260515633929778 0.0
-0.0001608388537071715 0.0
-0.0001591061251868611 0.0
-0.00015738456583734375 0.0
-0.00015570186573810876 0.0
-0.0001540425720352524 0.0
-0.00015240592602137063 0.0
-0.00015079396922761148 0.0
-0.00014920439985961713 0.0
-0.00014763628043465597 0.0
-0.00014608856046307545 0.0
-0.00014456229685458206 0.0
-0.00014305617085254117 0.0
-0.0001415681698346297 0.0
-0.00014010268764299302 0.0
-0.00013865924418023093 0.0
-0.00013723454094472073 0.0
-0.0001358287324654525 0.0
-0.0001344435935751227 0.0
-0.00013307919974825017 0.0
-0.00013173096322315235 0.0
-0.00013040123895660953 0.0
-0.00012909068913925843 0.0
-0.00012779642790371927 0.0
-0.00012651822408358328 0.0
-0.00012525643897755184 0.0
-0.00012401193389187685 0.0
-0.00012278089133848584 0.0
-0.00012156483201686743 0.0
-0.00012036299222890602 0.0
-0.00011917458292289385 0.0
-0.00011800055671637947 0.0
-0.00011684091881308859 0.0
-0.00011569319292883513 0.0
-0.00011455865557983118 0.0
-0.00011343637758324946 0.0
-0.00011232696286747219 0.0
-0.0001112317997593832 0.0
-0.000110148528083485 0.0
-0.00010907683715399834 0.0
-0.0001080189832615738 0.0
-0.00010697221911121138 0.0
-0.00010593784726918198 0.0
-0.00010491646274076228 0.0
-0.00010390708269250849 0.0
-0.00010290877155643065 0.0
-0.00010192400650760154 0.0
-0.00010094674438115034 0.0
-9.998055927685003e-05 0.0
-9.902505325898042e-05 0.0
-9.808086367306911e-05 0.0
-9.714597773041079e-05 0.0
-9.622064681628918e-05 0.0
-9.530497128895682e-05 0.0
-9.439752780818606e-05 0.0
-9.349864866768318e-05 0.0
-9.261146018158034e-05 0.0
-9.172736534775406e-05 0.0
-9.08537307266111e-05 0.0
-8.99887071615905e-05 0.0
-8.91303430453435e-05 0.0
-8.827993105453067e-05 0.0
-8.743744909992231e-05 0.0
-8.66024348416818e-05 0.0
-8.577465824330267e-05 0.0
-8.495462379775253e-05 0.0
-8.414218034921589e-05 0.0
-8.333684956013611e-05 0.0
-8.253951095104732e-05 0.0
-8.17493455929639e-05 0.0
-8.096641985221682e-05 0.0
-8.019124396487343e-05 0.0
-7.942276361484932e-05 0.0
-7.866086857663508e-05 0.0
-7.790654103223657e-05 0.0
-7.715940164695027e-05 0.0
-7.641837215786395e-05 0.0
-7.56850343257589e-05 0.0
-7.495811107928274e-05 0.0
-7.423825487363412e-05 0.0
-7.35250496155006e-05 0.0
-7.28181811120521e-05 0.0
-7.21174783881937e-05 0.0
-7.14229578843449e-05 0.0
-7.073487520468431e-05 0.0
-7.005236234487448e-05 0.0
-6.937593127715909e-05 0.0
-6.87061943106865e-05 0.0
-6.804138619031055e-05 0.0
-6.738213703415997e-05 0.0
-6.672907623689315e-05 0.0
-6.608130169154769e-05 0.0
-6.543894011336464e-05 0.0
-6.480182633317928e-05 0.0
-6.416946235836214e-05 0.0
-6.354221758483452e-05 0.0
-6.292031244283946e-05 0.0
-6.230289310859053e-05 0.0
-6.169030887060849e-05 0.0
-6.108240614775811e-05 0.0
-6.047933119771688e-05 0.0
-5.988102362712835e-05 0.0
-5.928736471854876e-05 0.0
-5.8698157970550926e-05 0.0
-5.811333146570871e-05 0.0
-5.7533262177812995e-05 0.0
-5.695761614785618e-05 0.0
-5.6386784531209344e-05 0.0
-5.58207585668265e-05 0.0
-5.5259426260824246e-05 0.0
-5.470145408233841e-05 0.0
-5.415017510937538e-05 0.0
-5.360194811236286e-05 0.0
-5.305997649234484e-05 0.0
-5.252116476309048e-05 0.0
-5.1987378957982265e-05 0.0
-5.145833369366647e-05 0.0
-5.0934085192900976e-05 0.0
-5.041450041530968e-05 0.0
-4.989928617789746e-05 0.0
-4.93886255997767e-05 0.0
-4.8882410208503366e-05 0.0
-4.838035298908661e-05 0.0
-4.788225044377343e-05 0.0
-4.73882015114711e-05 0.0
-4.689804333479585e-05 0.0
-4.641135551658309e-05 0.0
-4.592824442808626e-05 0.0
-4.5448699739496634e-05 0.0
-4.4972534861708725e-05 0.0
-4.44997182322181e-05 0.0
-4.402822669183805e-05 0.0
-4.3560827854011806e-05 0.0
-4.309621679139419e-05 0.0
-4.263429201517602e-05 0.0
-4.217593776858997e-05 0.0
-4.171882322066937e-05 0.0
-4.126462184568493e-05 0.0
-4.0813269471913835e-05 0.0
-4.03647369507315e-05 0.0
-3.991870535132076e-05 0.0
-3.9475383179490664e-05 0.0
-3.903475181674076e-05 0.0
-3.8597128474802245e-05 0.0
-3.8162362016707754e-05 0.0
-3.77305502264377e-05 0.0
-3.730189340101686e-05 0.0
-3.687652383406162e-05 0.0
-3.645448516106897e-05 0.0
-3.603437978778272e-05 0.0
-3.561830092948404e-05 0.0
-3.520568844980105e-05 0.0
-3.479655888263941e-05 0.0
-3.439152857856893e-05 0.0
-3.3988334311395835e-05 0.0
-3.358864889046823e-05 0.0
-3.319241156321662e-05 0.0
-3.279947920369881e-05 0.0
-3.240967696421517e-05 0.0
-3.202335482303635e-05 0.0
-3.163997133585443e-05 0.0
-3.125951689450352e-05 0.0
-3.0881834328671226e-05 0.0
-3.0506933773397213e-05 0.0
-3.013466817640864e-05 0.0
-2.97647879083002e-05 0.0
-2.9397454079239792e-05 0.0
-2.9032762051316e-05 0.0
-2.867009361938637e-05 0.0
-2.8309552622871613e-05 0.0
-2.7951348091485778e-05 0.0
-2.7595218571613007e-05 0.0
-2.7241005070158278e-05 0.0
-2.6888897138752658e-05 0.0
-2.653864830429144e-05 0.0
-2.6190500286870966e-05 0.0
-2.584430977055456e-05 0.0
-2.550005750405231e-05 0.0
-2.5157741908788974e-05 0.0
-2.4817464521936944e-05 0.0
-2.4479420072776125e-05 0.0
-2.4143547774426634e-05 0.0
-2.3809798318211405e-05 0.0
-2.347821826999678e-05 0.0
-2.3149016685432202e-05 0.0
-2.282219833475308e-05 0.0
-2.2497703003398934e-05 0.0
-2.2175760525773397e-05 0.0
-2.1856398578798224e-05 0.0
-2.1539579522316923e-05 0.0
-2.1225208108781412e-05 0.0
-2.091350001468863e-05 0.0
-2.0604481263420152e-05 0.0
-2.029786849787346e-05 0.0
-1.999398910910186e-05 0.0
-1.9692581700713603e-05 0.0
-1.9393662517798965e-05 0.0
-1.909729450393659e-05 0.0
-1.880330370749161e-05 0.0
-1.8511752955419053e-05 0.0
-1.822246347364223e-05 0.0
-1.793532477748604e-05 0.0
-1.7650420475029668e-05 0.0
-1.7367614629317163e-05 0.0
-1.7086827006612384e-05 0.0
-1.6807989510883337e-05 0.0
-1.6530988475737493e-05 0.0
-1.6255734228475205e-05 0.0
-1.5982238150531116e-05 0.0
-1.5710435292604564e-05 0.0
-1.5440298196046158e-05 0.0
-1.5171030844496319e-05 0.0
-1.4903607140949574e-05 0.0
-1.4637659834419146e-05 0.0
-1.4373093938683383e-05 0.0
-1.4109903363141676e-05 0.0
-1.3848083080638853e-05 0.0
-1.3587606990321113e-05 0.0
-1.3328427777211301e-05 0.0
-1.3070663639647849e-05 0.0
-1.2814203717813456e-05 0.0
-1.2559172780393741e-05 0.0
-1.2305627923697007e-05 0.0
-1.2053550453372878e-05 0.0
-1.1802993614458298e-05 0.0
-1.1554103428076477e-05 0.0
-1.1306690280862573e-05 0.0
-1.1060969317975377e-05 0.0
-1.0816938853860912e-05 0.0
-1.0574688082241291e-05 0.0
-1.0334172749406947e-05 0.0
-1.0095520189297191e-05 0.0
-9.858824932104175e-06 0.0
-9.623944651838678e-06 0.0
-9.391006515258223e-06 0.0
-9.16005962103733e-06 0.0
-8.93103542844105e-06 0.0
-8.70404400496176e-06 0.0
-8.479059806167236e-06 0.0
-8.256034379838476e-06 0.0
-8.03496773701187e-06 0.0
-7.816006673367507e-06 0.0
-7.598898580267361e-06 0.0
-7.383686257280049e-06 0.0
-7.170419984243858e-06 0.0
-6.959075313982301e-06 0.0
-6.749492685528104e-06 0.0
-6.54166252546036e-06 0.0
-6.335583714039837e-06 0.0
-6.131243721485897e-06 0.0
-5.928464495443724e-06 0.0
-5.727274181861298e-06 0.0
-5.527542261691699e-06 0.0
-5.329220713307779e-06 0.0
-5.132439000883969e-06 0.0
-4.937124739147708e-06 0.0
-4.7431324071441285e-06 0.0
-4.550512879773315e-06 0.0
-4.359188420147929e-06 0.0
-4.169081193933353e-06 0.0
-3.980233954289617e-06 0.0
-3.7925339302298874e-06 0.0
-3.6060735608065095e-06 0.0
-3.4208519267910543e-06 0.0
-3.236790506613716e-06 0.0
-3.05385742780079e-06 0.0
-2.872175148078181e-06 0.0
-2.6917277273547593e-06 0.0
-2.5124470285791975e-06 0.0
-2.3343679488390855e-06 0.0
-2.1574722002707567e-06 0.0
-1.9818502255691763e-06 0.0
-1.807506351362872e-06 0.0
-1.6343814698529024e-06 0.0
-1.4625675224615742e-06 0.0
-1.2922030671771827e-06 0.0
-1.1229790374692194e-06 0.0
-9.551758370177556e-07 0.0
-7.887773578724393e-07 0.0
-6.238280884014587e-07 0.0
-4.602500462435199e-07 0.0
-2.980129324732842e-07 0.0
-1.372798293887079e-07 0.0
2.198076989933072e-08 0.0
1.7973887225680073e-07 0.0
3.3596395782999293e-07 0.0
4.909028941507826e-07 0.0
6.443711685205615e-07 0.0
7.963343060607885e-07 0.0
9.468485883151284e-07 0.0
1.0959774111015238e-06 0.0
1.2436179942345334e-06 0.0
1.389866701332698e-06 0.0
1.534765139900154e-06 0.0
1.678280609111144e-06 0.0
1.8204555441621652e-06 0.0
1.96125702928549e-06 0.0
2.100664444437108e-06 0.0
2.2387593163898163e-06 0.0
2.3756429877967513e-06 0.0
2.511152874014386e-06 0.0
2.6453677411451796e-06 0.0
2.778217250193651e-06 0.0
2.909823857518501e-06 0.0
3.040188002366158e-06 0.0
3.169381773130224e-06 0.0
3.2972523100680055e-06 0.0
3.4237044499951234e-06 0.0
3.548864358893915e-06 0.0
3.6728558184113756e-06 0.0
3.79551599037e-06 0.0
3.916902313966854e-06 0.0
4.03692268412562e-06 0.0
4.155592047337754e-06 0.0
4.272810336932185e-06 0.0
4.3885713170296e-06 0.0
4.502946929656017e-06 0.0
4.615715538595828e-06 0.0
4.726937284708462e-06 0.0
4.836540922088552e-06 0.0
4.94458135161257e-06 0.0
5.051016724335261e-06 0.0
5.1557823765893616e-06 0.0
5.258770375786118e-06 0.0
5.35989096036072e-06 0.0
5.4594284828252815e-06 0.0
5.557057179768467e-06 0.0
5.6527983356849675e-06 0.0
5.746686147504369e-06 0.0
5.8384818109712e-06 0.0
5.928571259898891e-06 0.0
6.016738928469633e-06 0.0
6.102886964130194e-06 0.0
6.187020537212317e-06 0.0
6.269310055942013e-06 0.0
6.349535764157519e-06 0.0
6.42774554543174e-06 0.0
6.503870775174352e-06 0.0
6.578078843611777e-06 0.0
6.650492341108274e-06 0.0
6.7207262647687555e-06 0.0
6.857819550395027e-06 0.0
6.930270617905983e-06 0.0
7.0064550011717125e-06 0.0
7.086259420853543e-06 0.0
7.169487863905293e-06 0.0
7.25604354179335e-06 0.0
7.345661577816097e-06 0.0
7.437955331521108e-06 0.0
7.532672309974163e-06 0.0
7.629413560147038e-06 0.0
7.72771812898925e-06 0.0
7.827555761470454e-06 0.0
7.927887807190401e-06 0.0
8.028956927651522e-06 0.0
8.129675460574142e-06 0.0
8.228562625964562e-06 0.0
8.322608221923187e-06 0.0
8.410072649275812e-06 0.0
8.484721238987994e-06 0.0
8.543182320469356e-06 0.0
8.577050984300079e-06 0.0
8.577715656742503e-06 0.0
8.535646482480696e-06 0.0
8.4558531767553e-06 0.0
8.332246505225722e-06 0.0
8.173807697983765e-06 0.0
7.98077091316476e-06 0.0
7.749102836902246e-06 0.0
7.4616695602390706e-06 0.0
7.092482545048052e-06 0.0
6.6241264680500475e-06 0.0
6.065523080229758e-06 0.0
5.45036488642117e-06 0.0
4.814470116718274e-06 0.0
4.149243247657088e-06 0.0
3.4022399863704886e-06 0.0
2.542644296598047e-06 0.0
1.6385486168636626e-06 0.0
8.707461703447674e-07 0.0
3.6369692375985406e-07 0.0
1.107575941548034e-07 0.0
2.1343043225083496e-08 0.0
2.9846282881886576e-09 0.0
9.71472211178101e-11 0.0
-2.616833196357515e-12 0.0
-1.242976262167424e-13 0.0
1.5904344719258108e-13 0.0
5.065966803602574e-14 0.0
-2.0019494911658158e-14 0.0
-7.526490059613205e-15 0.0
-1.9323069932037004e-15 0.0
-1.9741438286176604e-15 0.0
-1.4519955943019977e-15 0.0
-7.999129779726736e-16 0.0
-1.0629595666507026e-15 0.0
-4.665261128843892e-16 0.0
-3.03323714007688e-16 0.0
-1.3955235223274084e-16 0.0
2.2208559505122846e-16 0.0
4.836067785866418e-16 0.0
-2.902151829598802e-17 0.0
1.6734230167598972e-16 0.0
7.801598557435871e-16 0.0
-6.667356469405703e-17 0.0
-2.258615644651548e-16 0.0
-5.984281467646277e-16 0.0
-3.7638119056456724e-16 0.0
3.450820625690691e-16 0.0
-9.272016465472442e-17 0.0
-3.822314571981661e-16 0.0
6.338997082333654e-16 0.0
8.275900650320745e-16 0.0
-1.8986315590514046e-15 0.0
6.092650456733517e-16 0.0
2.0960676627228684e-15 0.0
-2.0368207245303987e-15 0.0
1.0583665274826592e-16 0.0
1.0583251186198913e-15 0.0
-1.5863150933461208e-15 0.0
0.0 0.0092341652872599
0.0 0.022109785930462582
0.0 0.040062852071455615
0.0 0.06509563926310422
-2.2346346672976526e-15 0.1
-3.101829337168467e-15 0.1
3.5339238583539163e-14 0.1
-3.6825683337984155e-14 0.1
0.0 0.09234095951658894
0.0 0.08526779443703549
0.0 0.07873568783499109
0.0 0.0727032535816559
0.0 0.06713226878991595
0.0 0.06198743331091956
0.0 0.057236152337957265
0.0 0.0528483169295235
0.0 0.04879612844994366
0.0 0.04505391065785078
0.0 0.04159795282712412
0.0 0.038406357242573554
0.0 0.03545890171822759
0.0 0.03273691087333547
0.0 0.030223137736034914
0.0 0.02790165483820786
0.0 0.0257577530019653
0.0 0.02377784835210924
0.0 0.021949395807875346
0.0 0.020260810255684106
0.0 0.018701392223559918
0.0 0.0172612615942909
0.0 0.01593129333976967
0.0 0.014703060294372395
0.0 0.013568780865484222
0.0 0.012521266044857477
0.0 0.011553890331006662
0.0 0.010660465034603194
0.0 0.009835536625600954
0.0 0.00907326370482228
0.0 0.00837030999995649
0.0 0.007726087746996349
0.0 0.007135170244480615
0.0 0.006593390748406642
0.0 0.006096530311879409
0.0 0.005642149696251478
0.0 0.005227280079227308
0.0 0.004850432347221769
0.0 0.004507847345357955
0.0 0.004196858294943916
0.0 0.003914636050928357
0.0 0.003659181029413619
0.0 0.003429274325085689
0.0 0.0032223482632913873
0.0 0.0030379041388277437
0.0 0.002873382434964074
0.0 0.00272747122922494
0.0 0.0025995448420329977
0.0 0.0024873537464024627
0.0 0.0023900643825088786
0.0 0.0023075722453889465
0.0 0.002237491692921815
0.0 0.002178774500577241
0.0 0.0021307455045091166
0.0 0.0020912208448869824
0.0 0.0020597726996754986
0.0 0.0020352287657961895
0.0 0.0020166791500383237
0.0 0.0020026469422149023
0.0 0.0019924578519032407
0.0 0.00198500432430802
0.0 0.001979891365732517
0.0 0.00197673169374003
0.0 0.0019737632602579575
0.0 0.001972185377609016
0.0 0.0019701586735153807
0.0 0.001968656587110245
0.0 0.001967098213327008
0.0 0.001965382438059467
0.0 0.0019635564833820713
0.0 0.0019614243764477326
0.0 0.0019591674748112653
0.0 0.0019567052774852565
0.0 0.0019541388401548973
0.0 0.0019514267426093007
0.0 0.001948733461437589
0.0 0.001946018979830571
0.0 0.0019433241871060721
0.0 0.0019406827475193181
0.0 0.0019380583003756815
0.0 0.0019355110962165274
0.0 0.0019330036848371499
0.0 0.0019306296877792005
7.954371061495607e-06 0.00493383962107745
7.458152558600866e-05 0.002826949763440418
0.00012232381251943715 0.0017712271499865223
0.00016318756097375795 0.0014851288860200217
2.988252257375731e-05 0.001420567454645416
1.960156266990755e-05 0.002260534581061555
9.611484943843875e-05 0.0016718412395558054