# vtk DataFile Version 3.0
Some data
ASCII
DATASET UNSTRUCTURED_GRID
POINTS 7930 float
0.0 0.0 0.0
0.0 10.0 0.0
10.0 10.0 0.0
10.0 0.0 0.0
0.5 0.0 0.0
0.0009999999999981016 0.0 0.0
0.001999999999996203 0.0 0.0
0.002999999999994305 0.0 0.0
0.003999999999992409 0.0 0.0
0.004999999999990531 0.0 0.0
0.005999999999988653 0.0 0.0
0.006999999999986775 0.0 0.0
0.007999999999984898 0.0 0.0
0.008999999999983018 0.0 0.0
0.009999999999981142 0.0 0.0
0.01099999999997926 0.0 0.0
0.01199999999997736 0.0 0.0
0.0129999999999754 0.0 0.0
0.01399999999997343 0.0 0.0
0.01499999999997147 0.0 0.0
0.01599999999996944 0.0 0.0
0.0169999999999673 0.0 0.0
0.01799999999996516 0.0 0.0
0.01899999999996302 0.0 0.0
0.01999999999996084 0.0 0.0
0.02099999999995862 0.0 0.0
0.02199999999995639 0.0 0.0
0.02299999999995417 0.0 0.0
0.02399999999995195 0.0 0.0
0.02499999999994972 0.0 0.0
0.0259999999999475 0.0 0.0
0.02699999999994527 0.0 0.0
0.02799999999994315 0.0 0.0
0.0289999999999411 0.0 0.0
0.02999999999993905 0.0 0.0
0.030999999999937 0.0 0.0
0.03199999999993521 0.0 0.0
0.0329999999999335 0.0 0.0
0.0339999999999318 0.0 0.0
0.03499999999993009 0.0 0.0
0.03599999999992853 0.0 0.0
0.036999999999927 0.0 0.0
0.03799999999992547 0.0 0.0
0.03899999999992394 0.0 0.0
0.03999999999992241 0.0 0.0
0.04099999999992088 0.0 0.0
0.04199999999991934 0.0 0.0
0.04299999999991782 0.0 0.0
0.04399999999991629 0.0 0.0
0.04499999999991475 0.0 0.0
0.04599999999991322 0.0 0.0
0.0469999999999117 0.0 0.0
0.04799999999991016 0.0 0.0
0.04899999999990863 0.0 0.0
0.0499999999999071 0.0 0.0
0.05099999999990557 0.0 0.0
0.05199999999990404 0.0 0.0
0.05299999999990251 0.0 0.0
0.05399999999990097 0.0 0.0
0.05499999999989943 0.0 0.0
0.05599999999989791 0.0 0.0
0.05699999999989638 0.0 0.0
0.05799999999989484 0.0 0.0
0.05899999999989317 0.0 0.0
0.05999999999989129 0.0 0.0
0.06099999999988941 0.0 0.0
0.06199999999988753 0.0 0.0
0.06299999999988531 0.0 0.0
0.06399999999988273 0.0 0.0
0.06499999999988015 0.0 0.0
0.06599999999987759 0.0 0.0
0.0669999999998748 0.0 0.0
0.06799999999987189 0.0 0.0
0.06899999999986897 0.0 0.0
0.06999999999986604 0.0 0.0
0.07099999999986313 0.0 0.0
0.0719999999998602 0.0 0.0
0.07299999999985729 0.0 0.0
0.07399999999985438 0.0 0.0
0.07499999999985145 0.0 0.0
0.07599999999984854 0.0 0.0
0.07699999999984562 0.0 0.0
0.0779999999998427 0.0 0.0
0.07899999999983978 0.0 0.0
0.07999999999983685 0.0 0.0
0.08099999999983394 0.0 0.0
0.08199999999983103 0.0 0.0
0.0829999999998281 0.0 0.0
0.08399999999982519 0.0 0.0
0.08499999999982226 0.0 0.0
0.08599999999981935 0.0 0.0
0.08699999999981643 0.0 0.0
0.0879999999998135 0.0 0.0
0.08899999999981059 0.0 0.0
0.08999999999980766 0.0 0.0
0.09099999999980475 0.0 0.0
0.09199999999980184 0.0 0.0
0.09299999999979891 0.0 0.0
0.093999999999796 0.0 0.0
0.09499999999979307 0.0 0.0
0.09599999999979016 0.0 0.0
0.09699999999978724 0.0 0.0
0.09799999999978432 0.0 0.0
0.0989999999997814 0.0 0.0
0.09999999999977847 0.0 0.0
0.1009999999997756 0.0 0.0
0.1019999999997726 0.0 0.0
0.1029999999997697 0.0 0.0
0.1039999999997668 0.0 0.0
0.1049999999997639 0.0 0.0
0.105999999999761 0.0 0.0
0.106999999999758 0.0 0.0
0.1079999999997551 0.0 0.0
0.1089999999997522 0.0 0.0
0.1099999999997493 0.0 0.0
0.1109999999997464 0.0 0.0
0.1119999999997434 0.0 0.0
0.1129999999997405 0.0 0.0
0.1139999999997376 0.0 0.0
0.1149999999997347 0.0 0.0
0.1159999999997318 0.0 0.0
0.1169999999997288 0.0 0.0
0.1179999999997259 0.0 0.0
0.118999999999723 0.0 0.0
0.1199999999997201 0.0 0.0
0.1209999999997172 0.0 0.0
0.1219999999997143 0.0 0.0
0.1229999999997113 0.0 0.0
0.1239999999997084 0.0 0.0
0.1249999999997055 0.0 0.0
0.1259999999997026 0.0 0.0
0.1269999999996997 0.0 0.0
0.1279999999996967 0.0 0.0
0.1289999999996938 0.0 0.0
0.1299999999996909 0.0 0.0
0.130999999999688 0.0 0.0
0.1319999999996851 0.0 0.0
0.1329999999996822 0.0 0.0
0.1339999999996792 0.0 0.0
0.1349999999996764 0.0 0.0
0.1359999999996734 0.0 0.0
0.1369999999996705 0.0 0.0
0.1379999999996676 0.0 0.0
0.1389999999996647 0.0 0.0
0.1399999999996618 0.0 0.0
0.1409999999996588 0.0 0.0
0.1419999999996559 0.0 0.0
0.142999999999653 0.0 0.0
0.1439999999996501 0.0 0.0
0.1449999999996472 0.0 0.0
0.1459999999996442 0.0 0.0
0.1469999999996414 0.0 0.0
0.1479999999996384 0.0 0.0
0.1489999999996355 0.0 0.0
0.1499999999996326 0.0 0.0
0.1509999999996297 0.0 0.0
0.1519999999996268 0.0 0.0
0.1529999999996239 0.0 0.0
0.1539999999996209 0.0 0.0
0.154999999999618 0.0 0.0
0.1559999999996151 0.0 0.0
0.1569999999996122 0.0 0.0
0.1579999999996093 0.0 0.0
0.1589999999996064 0.0 0.0
0.1599999999996035 0.0 0.0
0.1609999999996005 0.0 0.0
0.1619999999995976 0.0 0.0
0.1629999999995947 0.0 0.0
0.1639999999995918 0.0 0.0
0.1649999999995889 0.0 0.0
0.165999999999586 0.0 0.0
0.1669999999995831 0.0 0.0
0.1679999999995801 0.0 0.0
0.1689999999995772 0.0 0.0
0.1699999999995743 0.0 0.0
0.1709999999995714 0.0 0.0
0.1719999999995685 0.0 0.0
0.1729999999995655 0.0 0.0
0.1739999999995626 0.0 0.0
0.1749999999995597 0.0 0.0
0.1759999999995568 0.0 0.0
0.1769999999995539 0.0 0.0
0.177999999999551 0.0 0.0
0.178999999999548 0.0 0.0
0.1799999999995451 0.0 0.0
0.1809999999995422 0.0 0.0
0.1819999999995393 0.0 0.0
0.1829999999995364 0.0 0.0
0.1839999999995335 0.0 0.0
0.1849999999995305 0.0 0.0
0.1859999999995277 0.0 0.0
0.1869999999995247 0.0 0.0
0.1879999999995218 0.0 0.0
0.1889999999995189 0.0 0.0
0.189999999999516 0.0 0.0
0.1909999999995131 0.0 0.0
0.1919999999995101 0.0 0.0
0.1929999999995072 0.0 0.0
0.1939999999995043 0.0 0.0
0.1949999999995014 0.0 0.0
0.1959999999994985 0.0 0.0
0.1969999999994956 0.0 0.0
0.1979999999994927 0.0 0.0
0.1989999999994897 0.0 0.0
0.1999999999994868 0.0 0.0
0.2009999999994839 0.0 0.0
0.201999999999481 0.0 0.0
0.2029999999994781 0.0 0.0
0.2039999999994752 0.0 0.0
0.2049999999994722 0.0 0.0
0.2059999999994693 0.0 0.0
0.2069999999994664 0.0 0.0
0.2079999999994635 0.0 0.0
0.2089999999994606 0.0 0.0
0.2099999999994577 0.0 0.0
0.2109999999994548 0.0 0.0
0.2119999999994518 0.0 0.0
0.2129999999994489 0.0 0.0
0.213999999999446 0.0 0.0
0.2149999999994431 0.0 0.0
0.2159999999994402 0.0 0.0
0.2169999999994373 0.0 0.0
0.2179999999994343 0.0 0.0
0.2189999999994314 0.0 0.0
0.2199999999994285 0.0 0.0
0.2209999999994256 0.0 0.0
0.2219999999994227 0.0 0.0
0.2229999999994198 0.0 0.0
0.2239999999994168 0.0 0.0
0.2249999999994139 0.0 0.0
0.225999999999411 0.0 0.0
0.2269999999994081 0.0 0.0
0.2279999999994052 0.0 0.0
0.2289999999994023 0.0 0.0
0.2299999999993994 0.0 0.0
0.2309999999993964 0.0 0.0
0.2319999999993935 0.0 0.0
0.2329999999993906 0.0 0.0
0.2339999999993877 0.0 0.0
0.2349999999993848 0.0 0.0
0.2359999999993818 0.0 0.0
0.236999999999379 0.0 0.0
0.237999999999376 0.0 0.0
0.2389999999993731 0.0 0.0
0.2399999999993702 0.0 0.0
0.2409999999993673 0.0 0.0
0.2419999999993644 0.0 0.0
0.2429999999993615 0.0 0.0
0.2439999999993585 0.0 0.0
0.2449999999993556 0.0 0.0
0.2459999999993527 0.0 0.0
0.246999999999351 0.0 0.0
0.2479999999993495 0.0 0.0
0.248999999999348 0.0 0.0
0.2499999999993464 0.0 0.0
0.2509999999993477 0.0 0.0
0.2519999999993489 0.0 0.0
0.2529999999993502 0.0 0.0
0.2539999999993516 0.0 0.0
0.2549999999993542 0.0 0.0
0.2559999999993569 0.0 0.0
0.2569999999993595 0.0 0.0
0.2579999999993621 0.0 0.0
0.2589999999993647 0.0 0.0
0.2599999999993673 0.0 0.0
0.26099999999937 0.0 0.0
0.2619999999993726 0.0 0.0
0.2629999999993753 0.0 0.0
0.2639999999993779 0.0 0.0
0.2649999999993806 0.0 0.0
0.2659999999993832 0.0 0.0
0.2669999999993858 0.0 0.0
0.2679999999993884 0.0 0.0
0.2689999999993911 0.0 0.0
0.2699999999993937 0.0 0.0
0.2709999999993963 0.0 0.0
0.271999999999399 0.0 0.0
0.2729999999994017 0.0 0.0
0.2739999999994043 0.0 0.0
0.2749999999994069 0.0 0.0
0.2759999999994096 0.0 0.0
0.2769999999994122 0.0 0.0
0.2779999999994148 0.0 0.0
0.2789999999994174 0.0 0.0
0.2799999999994201 0.0 0.0
0.2809999999994228 0.0 0.0
0.2819999999994254 0.0 0.0
0.282999999999428 0.0 0.0
0.2839999999994306 0.0 0.0
0.2849999999994333 0.0 0.0
0.2859999999994359 0.0 0.0
0.2869999999994385 0.0 0.0
0.2879999999994411 0.0 0.0
0.2889999999994439 0.0 0.0
0.2899999999994465 0.0 0.0
0.2909999999994491 0.0 0.0
0.2919999999994517 0.0 0.0
0.2929999999994544 0.0 0.0
0.293999999999457 0.0 0.0
0.2949999999994596 0.0 0.0
0.2959999999994622 0.0 0.0
0.2969999999994649 0.0 0.0
0.2979999999994676 0.0 0.0
0.2989999999994702 0.0 0.0
0.2999999999994728 0.0 0.0
0.3009999999994754 0.0 0.0
0.3019999999994781 0.0 0.0
0.3029999999994807 0.0 0.0
0.3039999999994834 0.0 0.0
0.304999999999486 0.0 0.0
0.3059999999994886 0.0 0.0
0.3069999999994913 0.0 0.0
0.3079999999994939 0.0 0.0
0.3089999999994965 0.0 0.0
0.3099999999994992 0.0 0.0
0.3109999999995018 0.0 0.0
0.3119999999995045 0.0 0.0
0.3129999999995071 0.0 0.0
0.3139999999995097 0.0 0.0
0.3149999999995123 0.0 0.0
0.315999999999515 0.0 0.0
0.3169999999995176 0.0 0.0
0.3179999999995203 0.0 0.0
0.3189999999995229 0.0 0.0
0.3199999999995256 0.0 0.0
0.3209999999995282 0.0 0.0
0.3219999999995308 0.0 0.0
0.3229999999995334 0.0 0.0
0.323999999999536 0.0 0.0
0.3249999999995387 0.0 0.0
0.3259999999995414 0.0 0.0
0.326999999999544 0.0 0.0
0.3279999999995466 0.0 0.0
0.3289999999995493 0.0 0.0
0.3299999999995519 0.0 0.0
0.3309999999995545 0.0 0.0
0.3319999999995571 0.0 0.0
0.3329999999995598 0.0 0.0
0.3339999999995625 0.0 0.0
0.3349999999995651 0.0 0.0
0.3359999999995677 0.0 0.0
0.3369999999995703 0.0 0.0
0.337999999999573 0.0 0.0
0.3389999999995756 0.0 0.0
0.3399999999995783 0.0 0.0
0.3409999999995809 0.0 0.0
0.3419999999995835 0.0 0.0
0.3429999999995862 0.0 0.0
0.3439999999995888 0.0 0.0
0.3449999999995914 0.0 0.0
0.345999999999594 0.0 0.0
0.3469999999995967 0.0 0.0
0.3479999999995994 0.0 0.0
0.348999999999602 0.0 0.0
0.3499999999996046 0.0 0.0
0.3509999999996072 0.0 0.0
0.3519999999996099 0.0 0.0
0.3529999999996125 0.0 0.0
0.3539999999996151 0.0 0.0
0.3549999999996178 0.0 0.0
0.3559999999996205 0.0 0.0
0.3569999999996231 0.0 0.0
0.3579999999996257 0.0 0.0
0.3589999999996283 0.0 0.0
0.359999999999631 0.0 0.0
0.3609999999996336 0.0 0.0
0.3619999999996362 0.0 0.0
[...]
POINT_DATA 7930
SCALARS Disp float 2
LOOKUP_TABLE default
0.0 0.0006667943217781116
0.0 0.1
0.0 0.1
0.0 0.0
8.308626368006018e-15 0.0
-7.0123965418584425e-06 0.0006664565698703125
-1.3860177897103172e-05 0.0006650297107232044
-2.0569682055624618e-05 0.0006632664228771075
-2.7616797001963824e-05 0.0006615917871021594
-3.472142188439428e-05 0.0006587415460996126
-4.158442149918922e-05 0.0006536188482368256
-4.7913329114792094e-05 0.0006485147026071215
-5.44899089827893e-05 0.0006447974580043823
-6.177550285753141e-05 0.0006395241185660595
-6.878410041395502e-05 0.000631790427261308
-7.520954655634226e-05 0.0006231949040511211
-8.185862415614681e-05 0.0006163314823200382
-8.929675589054596e-05 0.0006084048706018213
-9.618422807867614e-05 0.0005968248424261036
-0.00010227297196771854 0.0005844718029481096
-0.0001085053976220039 0.0005743715062359883
-0.00011593229421033557 0.0005632870634166697
-0.00012334042999536095 0.0005477760951894126
-0.00012947841783346564 0.0005307939450464588
-0.00013577155205894183 0.0005163110190745181
-0.00014339121281066689 0.0005005096323497221
-0.00015105903576649075 0.00047914294990314063
-0.0001572171100903956 0.00045533129554037717
-0.00016308760748621516 0.0004334947522453082
-0.00017038610301078427 0.0004106571468254291
-0.00017807973237424812 0.00037999817600697477
-0.00018374222416317669 0.0003454278648700621
-0.0001899366988114179 0.00031000188594635633
-0.0001963136247441894 0.0002695392620614869
-0.0002035210632465815 0.00021254791832316854
-0.00020318675758937652 0.00013808517059774378
-0.00018545584388059372 0.0
-0.0001622048046175016 0.0
-0.00014674600764063542 0.0
-0.00013415039383688003 0.0
-0.00012419854796620646 0.0
-0.00011656715786638985 0.0
-0.00010995041898220999 0.0
-0.00010426955680095993 0.0
-9.918267384559124e-05 0.0
-9.464115285626835e-05 0.0
-9.053404781460618e-05 0.0
-8.67103630757248e-05 0.0
-8.315841640152085e-05 0.0
-7.989203047955455e-05 0.0
-7.683863022663768e-05 0.0
-7.400632738097115e-05 0.0
-7.13392212952475e-05 0.0
-6.881964153969498e-05 0.0
-6.642745006615736e-05 0.0
-6.416760668798171e-05 0.0
-6.203549489931529e-05 0.0
-6.00143304820432e-05 0.0
-5.803313721826617e-05 0.0
-5.618195923133269e-05 0.0
-5.4423413023531545e-05 0.0
-5.274796428722974e-05 0.0
-5.1141420178054965e-05 0.0
-4.960878471018444e-05 0.0
-4.813903119984033e-05 0.0
-4.6721528409083886e-05 0.0
-4.536107342294857e-05 0.0
-4.405194435272037e-05 0.0
-4.278709777701251e-05 0.0
-4.156931995031957e-05 0.0
-4.039592070848679e-05 0.0
-3.925957043747832e-05 0.0
-3.8159781737825255e-05 0.0
-3.709823142733463e-05 0.0
-3.6072948409863444e-05 0.0
-3.507772978895889e-05 0.0
-3.411413190408618e-05 0.0
-3.318036752972195e-05 0.0
-3.22721163063975e-05 0.0
-3.1392484882386406e-05 0.0
-3.054013911832685e-05 0.0
-2.9712931159444214e-05 0.0
-2.8909831144762166e-05 0.0
-2.812736734086581e-05 0.0
-2.7367259191718632e-05 0.0
-2.6627747409709912e-05 0.0
-2.5906381388144748e-05 0.0
-2.5202631908579164e-05 0.0
-2.4517397948709913e-05 0.0
-2.384607136258822e-05 0.0
-2.3188893033020643e-05 0.0
-2.2546952844738008e-05 0.0
-2.19187703210871e-05 0.0
-2.1304354987583607e-05 0.0
-2.070141552408746e-05 0.0
-2.0110702664769064e-05 0.0
-1.953169571757061e-05 0.0
-1.896362675526696e-05 0.0
-1.8406856430259233e-05 0.0
-1.7862019321672466e-05 0.0
-1.732821531585786e-05 0.0
-1.680432472741177e-05 0.0
-1.62916155046606e-05 0.0
-1.578896089602858e-05 0.0
-1.5297637685983048e-05 0.0
-1.4817057543484074e-05 0.0
-1.4347862148921175e-05 0.0
-1.3889695351089863e-05 0.0
-1.3442552272230154e-05 0.0
-1.3006339378497666e-05 0.0
-1.2578973559823928e-05 0.0
-1.216321955133988e-05 0.0
-1.1759145019297986e-05 0.0
-1.1361216773440512e-05 0.0
-1.0974222471018694e-05 0.0
-1.0596706383510363e-05 0.0
-1.0227156407637087e-05 0.0
-9.866042486401589e-06 0.0
-9.512892358697653e-06 0.0
-9.166874990107936e-06 0.0
-8.828071554190976e-06 0.0
-8.496286243592276e-06 0.0
-8.170902518931307e-06 0.0
-7.852733412226828e-06 0.0
-7.53773668049502e-06 0.0
-7.228990286419311e-06 0.0
-6.924889518596264e-06 0.0
-6.626305083330611e-06 0.0
-6.3312364620162715e-06 0.0
-6.040841739420867e-06 0.0
-5.7546505250627475e-06 0.0
-5.472624011079453e-06 0.0
-5.194418697974617e-06 0.0
-4.92029745611958e-06 0.0
-4.650101654750277e-06 0.0
-4.383923906601893e-06 0.0
-4.121721435521129e-06 0.0
-3.8640349399569435e-06 0.0
-3.611097474024422e-06 0.0
-3.361189730974283e-06 0.0
-3.1162020198561014e-06 0.0
-2.8757247091745748e-06 0.0
-2.6399722921332857e-06 0.0
-2.408892709697163e-06 0.0
-2.1827566893694525e-06 0.0
-1.9618623420110485e-06 0.0
-1.7462081406337238e-06 0.0
-1.5359550304694895e-06 0.0
-1.3309229713319652e-06 0.0
-1.1314660170703742e-06 0.0
-9.37961166979905e-07 0.0
-7.501804816204871e-07 0.0
-5.677849609822685e-07 0.0
-3.909902796183548e-07 0.0
-2.2024132831902084e-07 0.0
-5.517456501481488e-08 0.0
1.0397620046098074e-07 0.0
2.575183823667352e-07 0.0
4.056850997900999e-07 0.0
5.480061372414451e-07 0.0
6.849767744497489e-07 0.0
8.155461574324367e-07 0.0
9.420948775863124e-07 0.0
1.0629029981766001e-06 0.0
1.1783614117245724e-06 0.0
1.2889954304500263e-06 0.0
1.3942812124111269e-06 0.0
1.4960437919772125e-06 0.0
1.5925763657706513e-06 0.0
1.6843240137875042e-06 0.0
1.7719307847384245e-06 0.0
1.8552785704517075e-06 0.0
1.934817061952497e-06 0.0
2.0104314587667192e-06 0.0
2.082172385059072e-06 0.0
2.150430501318567e-06 0.0
2.2148828410220267e-06 0.0
2.2759683960148256e-06 0.0
2.3338622829139485e-06 0.0
2.388491802323229e-06 0.0
2.4398262192766963e-06 0.0
2.488037110601823e-06 0.0
2.5334973093217402e-06 0.0
2.576020325653907e-06 0.0
2.6155816417720076e-06 0.0
2.65254345865594e-06 0.0
2.6867236160166833e-06 0.0
2.7180972858235084e-06 0.0
2.7470556527885296e-06 0.0
2.773599425650288e-06 0.0
2.7974930726804272e-06 0.0
2.818954975462658e-06 0.0
2.8378817931358326e-06 0.0
2.854283683584511e-06 0.0
2.868461567307913e-06 0.0
2.88027712299923e-06 0.0
2.889712755543868e-06 0.0
2.896869089552126e-06 0.0
2.901757347156702e-06 0.0
2.9042087826486963e-06 0.0
2.904480250934295e-06 0.0
2.9026565976824847e-06 0.0
2.8985200644511723e-06 0.0
2.8923568049060606e-06 0.0
2.884000442231641e-06 0.0
2.873611723386263e-06 0.0
2.8612939648620413e-06 0.0
2.846833082173042e-06 0.0
2.8303567727626955e-06 0.0
2.8120157133128475e-06 0.0
2.7918417626395223e-06 0.0
2.76982891933085e-06 0.0
2.7461049890941905e-06 0.0
2.7206968476507248e-06 0.0
2.6936106712915184e-06 0.0
2.664900637843896e-06 0.0
2.634732331636103e-06 0.0
2.6031192627949014e-06 0.0
2.570073884598979e-06 0.0
2.5357830049894066e-06 0.0
2.5002281383013824e-06 0.0
2.4635266096929903e-06 0.0
2.425709379511424e-06 0.0
2.3868549500805992e-06 0.0
2.3470798210235313e-06 0.0
2.3064128480630693e-06 0.0
2.264961271048809e-06 0.0
2.2228102361607584e-06 0.0
2.1800185107579724e-06 0.0
2.1366619684627526e-06 0.0
2.0927928889454177e-06 0.0
2.04851231524888e-06 0.0
2.0038877704290034e-06 0.0
1.9589903775508026e-06 0.0
1.913902328047092e-06 0.0
1.8686676558964364e-06 0.0
1.823365532354455e-06 0.0
1.7780611905439235e-06 0.0
1.7328134765589805e-06 0.0
1.6876892836225168e-06 0.0
1.6427422364825168e-06 0.0
1.598024459631098e-06 0.0
1.5535958629996874e-06 0.0
1.509506634089171e-06 0.0
1.4657967023648665e-06 0.0
1.4225232712692025e-06 0.0
1.3797312107978907e-06 0.0
1.3374304898813355e-06 0.0
1.295689267697471e-06 0.0
1.2545511419627871e-06 0.0
1.2140074503620867e-06 0.0
1.1741376450666634e-06 0.0
1.1349418500700968e-06 0.0
1.0964478290377143e-06 0.0
1.058694306932044e-06 0.0
1.021670873201379e-06 0.0
9.85411165691718e-07 0.0
9.499637300438938e-07 0.0
9.152751746315274e-07 0.0
8.813807665258164e-07 0.0
8.482973930106517e-07 0.0
8.160480150474493e-07 0.0
7.84630379913324e-07 0.0
7.5404487223055e-07 0.0
7.24282906667644e-07 0.0
6.953528843101654e-07 0.0
6.672483133878423e-07 0.0
6.399815788719761e-07 0.0
6.135238125981834e-07 0.0
5.878627152476646e-07 0.0
5.630098206749512e-07 0.0
5.389586975538945e-07 0.0
5.15677127482462e-07 0.0
4.93258119229861e-07 0.0
4.7144713056433244e-07 0.0
4.504660346157841e-07 0.0
4.302083075087692e-07 0.0
4.106843852645538e-07 0.0
3.9186959811897033e-07 0.0
3.7374252458241044e-07 0.0
3.56310011718271e-07 0.0
3.395437025239843e-07 0.0
3.234169462213933e-07 0.0
3.079288559877867e-07 0.0
2.930360926848244e-07 0.0
2.7876605430285566e-07 0.0
2.650997643937848e-07 0.0
2.5197814202568203e-07 0.0
2.394102068769088e-07 0.0
2.2736815339321691e-07 0.0
2.1584374675426647e-07 0.0
2.0483181517407184e-07 0.0
1.9429844298085102e-07 0.0
1.8423782199998655e-07 0.0
1.7463048347159597e-07 0.0
1.6545178481626366e-07 0.0
1.566818599750609e-07 0.0
1.4834247296495397e-07 0.0
1.403883444389479e-07 0.0
1.3280893494939112e-07 0.0
1.255896841929807e-07 0.0
1.18719288920267e-07 0.0
1.1218447645700743e-07 0.0
1.0596964235961808e-07 0.0
1.0006511864811505e-07 0.0
9.44516113044151e-08 0.0
8.912510702792794e-08 0.0
8.406870886157568e-08 0.0
7.927204316362512e-08 0.0
7.47248923876697e-08 0.0
7.041401479923252e-08 0.0
6.632812870614987e-08 0.0
6.245735612253927e-08 0.0
5.8788697556219594e-08 0.0
5.531981757173031e-08 0.0
5.2041111959365955e-08 0.0
4.8939364941379185e-08 0.0
4.6005086285228235e-08 0.0
4.323294984319752e-08 0.0
4.0613184103624304e-08 0.0
3.8139478391043396e-08 0.0
3.5809613562347834e-08 0.0
3.361344583260171e-08 0.0
3.1541939756675604e-08 0.0
2.9583066140825837e-08 0.0
2.773842249382784e-08 0.0
2.6002954051107172e-08 0.0
2.43640532132905e-08 0.0
2.2822460200415965e-08 0.0
2.1375028116115154e-08 0.0
2.000928078689134e-08 0.0
1.872848770130726e-08 0.0
1.7523986279746942e-08 0.0
1.6392061684543836e-08 0.0
1.5331226485331505e-08 0.0
1.4333329684741439e-08 0.0
1.3396597837889334e-08 0.0
1.2517449423568955e-08 0.0
1.1693305113900585e-08 0.0
1.0920072877474019e-08 0.0
1.0194918615458267e-08 0.0
9.51491237608507e-09 0.0
8.877262425565468e-09 0.0
8.280814514335874e-09 0.0
7.722278204751121e-09 0.0
7.199479761943476e-09 0.0
6.70991475564241e-09 0.0
6.25190651290733e-09 0.0
5.8239339439699255e-09 0.0
5.425210074528972e-09 0.0
5.051020943444254e-09 0.0
4.702205945097965e-09 0.0
4.375768439242122e-09 0.0
4.070108502310055e-09 0.0
3.785741005914585e-09 0.0
3.5212892786955507e-09 0.0
3.273440254802284e-09 0.0
3.042642316216531e-09 0.0
2.8270721582684897e-09 0.0
2.6262407584121126e-09 0.0
2.4399275754576967e-09 0.0
2.2654454065202173e-09 0.0
2.103140365072819e-09 0.0
1.9519282128475544e-09 0.0
1.810735602425911e-09 0.0
1.6796720938023384e-09 0.0
1.5579334211540528e-09 0.0
1.4444494086372365e-09 0.0
1.3389905441235624e-09 0.0
1.2409658901250645e-09 0.0
1.149812448475803e-09 0.0
1.0651842503979983e-09 0.0
9.865823039481314e-10 0.0
9.135340086151435e-10 0.0
8.457005495832837e-10 0.0
7.826497312324301e-10 0.0
7.242041238866309e-10 0.0
6.700128055849858e-10 0.0
6.197330344188206e-10 0.0
5.731248166843574e-10 0.0
5.298993979600473e-10 0.0
4.898967227158897e-10 0.0
4.528027777042104e-10 0.0
4.1826880924567716e-10 0.0
3.8636526491268026e-10 0.0
3.569588116388805e-10 0.0
3.296153889453927e-10 0.0
3.042038981554615e-10 0.0
2.808074517501251e-10 0.0
2.591976589661936e-10 0.0
2.391563755069582e-10 0.0
2.2060388299703445e-10 0.0
2.0345962780376472e-10 0.0
1.87558410956568e-10 0.0
1.7290695165233139e-10 0.0
1.5941923401007748e-10 0.0
1.4690741361925903e-10 0.0
1.3534523461410132e-10 0.0
1.2467905072263862e-10 0.0
1.1478250540610341e-10 0.0
1.0569387267483882e-10 0.0
9.731050029352294e-11 0.0
8.956436352988437e-11 0.0
8.2437049035665e-11 0.0
7.586866358093138e-11 0.0
6.979151644019862e-11 0.0
6.418815566115224e-11 0.0
5.902684772275465e-11 0.0
5.427497975715365e-11 0.0
4.989465462350676e-11 0.0
4.585915999172476e-11 0.0
4.214301985124546e-11 0.0
3.872369171362559e-11 0.0
3.557425011919673e-11 0.0
3.267598696579799e-11 0.0
3.000633506446838e-11 0.0
2.7546825861605266e-11 0.0
2.5286747179090784e-11 0.0
2.320887539787546e-11 0.0
2.12977830236642e-11 0.0
1.9542351097474583e-11 0.0
1.7928913718490003e-11 0.0
1.644392887970127e-11 0.0
1.5080479954004467e-11 0.0
1.3826324708941847e-11 0.0
1.267453854867822e-11 0.0
1.161815461928977e-11 0.0
1.0648043125117728e-11 0.0
9.753652571358405e-12 0.0
8.936342019782105e-12 0.0
8.18597406665758e-12 0.0
7.49842927458824e-12 0.0
6.866390516616367e-12 0.0
6.286462905358701e-12 0.0
5.7547458324092675e-12 0.0
5.267083440748284e-12 0.0
4.819640950265517e-12 0.0
4.409030591669803e-12 0.0
4.032891264898563e-12 0.0
3.688728476648937e-12 0.0
3.3733557282077523e-12 0.0
3.0844770777592024e-12 0.0
2.820143600647515e-12 0.0
2.5781350482630105e-12 0.0
2.3555994220800705e-12 0.0
2.1525538404537613e-12 0.0
1.9668941631863667e-12 0.0
1.7971066021084608e-12 0.0
1.6415521563027756e-12 0.0
1.499476204019031e-12 0.0
1.368865768180584e-12 0.0
1.2499738969195225e-12 0.0
1.1411845592677007e-12 0.0
1.0416356787670045e-12 0.0
9.507512019881186e-13 0.0
8.676297818685216e-13 0.0
7.915615692935136e-13 0.0
7.220603121097671e-13 0.0
6.585455209060687e-13 0.0
6.005174080718062e-13 0.0
5.477383227173983e-13 0.0
4.992585820139919e-13 0.0
4.551148007187811e-13 0.0
4.147911897956187e-13 0.0
3.780175689247784e-13 0.0
3.4450688046854053e-13 0.0
3.1392501672063567e-13 0.0
2.8596362439758103e-13 0.0
2.6037477922353166e-13 0.0
2.3710252324362855e-13 0.0
2.1599231056760463e-13 0.0
1.967657673420589e-13 0.0
1.791013649257318e-13 0.0
1.6303131657299916e-13 0.0
1.483591443205336e-13 0.0
1.349972945546148e-13 0.0
1.2281351427542297e-13 0.0
1.1172728203000033e-13 0.0
1.0163007267613816e-13 0.0
9.240218104562462e-14 0.0
8.402778922346893e-14 0.0
7.641089103208544e-14 0.0
6.949165881794783e-14 0.0
6.317589030077053e-14 0.0
5.74219553302725e-14 0.0
5.218044017884251e-14 0.0
4.741728934897591e-14 0.0
4.3107637602199604e-14 0.0
3.9155545357198655e-14 0.0
3.556817045775174e-14 0.0
3.2308080610050115e-14 0.0
2.933866993908341e-14 0.0
2.6653437537068216e-14 0.0
2.4199029504370777e-14 0.0
2.1964910228462065e-14 0.0
1.9940191416863172e-14 0.0
1.8101777941361004e-14 0.0
1.6425923405060828e-14 0.0
1.490607685582994e-14 0.0
1.3525847157760217e-14 0.0
1.227485468698308e-14 0.0
1.1136447456329854e-14 0.0
1.0097322522631568e-14 0.0
9.159978664935855e-15 0.0
7.507753201814814e-15 0.0
6.724919448881376e-15 0.0
5.964144281870216e-15 0.0
5.233112371922041e-15 0.0
4.5397185099286994e-15 0.0
3.888490423657483e-15 0.0
3.28496330274699e-15 0.0
2.734495925304781e-15 0.0
2.2396275928922707e-15 0.0
1.8021602272803958e-15 0.0
1.4235295726617642e-15 0.0
1.1002607257572898e-15 0.0
8.326761311456964e-16 0.0
6.146999240336187e-16 0.0
4.416637626706401e-16 0.0
3.1021216154806426e-16 0.0
2.129553952091389e-16 0.0
1.4200584524785933e-16 0.0
9.409554463692023e-17 0.0
6.202492198985347e-17 0.0
4.213642301868452e-17 0.0
3.0239016244319336e-17 0.0
2.313675575214585e-17 0.0
1.841547980405646e-17 0.0
1.5488041491273054e-17 0.0
1.3808040025478549e-17 0.0
1.2410844970873436e-17 0.0
1.0724942068778627e-17 0.0
1.0621312944312055e-17 0.0
1.1779893259092652e-17 0.0
1.3352222312173586e-17 0.0
1.5327472187386296e-17 0.0
1.5222629304580453e-17 0.0
1.3908115100491396e-17 0.0
1.555626846340958e-17 0.0
1.8569322986671546e-17 0.0
2.2573382027009208e-17 0.0
2.6871950202425452e-17 0.0
3.0072013885293487e-17 0.0
2.948650059350567e-17 0.0
2.1004876476339998e-17 0.0
1.4836143287536552e-17 0.0
6.023836469426841e-18 0.0
1.825822948097663e-17 0.0
5.604919583964854e-17 0.0
4.405002556708082e-17 0.0
2.9944836440967205e-17 0.0
4.2172552642574165e-17 0.0
3.3641594567123954e-17 0.0
2.2336518493523485e-17 0.0
4.5266241992546474e-17 0.0
3.68810312165858e-17 0.0
1.2844489589440924e-17 0.0
2.992855077610016e-17 0.0
1.922524298965906e-17 0.0
4.5639874677212574e-17 0.0
3.8137252926958445e-17 0.0
5.043752717287003e-17 0.0
8.989646533291541e-17 0.0
6.548936355150606e-17 0.0
5.095670978318141e-17 0.0
4.570387276889733e-17 0.0
7.619711274086007e-17 0.0
-2.2877850552578012e-17 0.0
1.1926007220129816e-16 0.0
7.051344618547095e-18 0.0
2.1485025125958075e-17 0.0
5.4314836977671775e-17 0.0
-2.6588145774631592e-17 0.0
9.673106367081642e-17 0.0
-1.7905528725763933e-17 0.0
1.5295235954154242e-17 0.0
8.516733248995605e-17 0.0
-4.592178499606898e-17 0.0
1.0304331632379812e-16 0.0
4.557737876635716e-17 0.0
-8.402991710200511e-17 0.0
3.8640565436384856e-17 0.0
-2.5279583620889436e-17 0.0
0.0 0.009234165287257824
0.0 0.022109785930449582
0.0 0.0400628520715312
0.0 0.06509563926323551
-5.002401981607534e-17 0.1
-6.767692035598938e-17 0.1
6.628524215769327e-16 0.1
-8.156719011607746e-16 0.1
0.0 0.0923409595166276
0.0 0.08526779443702906
0.0 0.07873568783498802
0.0 0.07270325358169975
0.0 0.06713226878994093
0.0 0.061987433310916405
0.0 0.05723615233794853
0.0 0.05284831692952181
0.0 0.04879612844994133
0.0 0.04505391065784506
0.0 0.04159795282712653
0.0 0.03840635724257089
0.0 0.0354589017182232
0.0 0.03273691087332649
0.0 0.030223137736027993
0.0 0.027901654838203237
0.0 0.025757753001959552
0.0 0.02377784835211491
0.0 0.021949395807802974
0.0 0.020260810255894542
0.0 0.01870139222365361
0.0 0.017261261595035098
0.0 0.015931293336680183
0.0 0.014703060372940625
0.0 0.013568780782904617
0.0 0.012521267482861313
0.0 0.011553883413523876
0.0 0.010660499143843104
0.0 0.009835453922831238
0.0 0.009073520329637739
0.0 0.00836987060878892
0.0 0.007720046303381577
0.0 0.007119930012360135
0.0 0.006565719473503424
0.0 0.006053903138567395
0.0 0.005581237991564265
0.0 0.005144729226039685
0.0 0.0047416110574120506
0.0 0.004369329280113408
0.0 0.004025525058573479
0.0 0.0037080202228206172
0.0 0.003414811902870675
0.0 0.00314411177842844
0.0 0.0028944913281246914
0.0 0.002664992001185137
0.0 0.0024548634689070554
0.0 0.0022626095895488646
0.0 0.0020864919170177285
0.0 0.0019249828521588329
0.0 0.0017777448399550833
0.0 0.0016443953688154997
0.0 0.001523456917799474
0.0 0.0014134215256571276
0.0 0.0013138065913641719
0.0 0.0012241956350241825
0.0 0.0011439144956099517
0.0 0.0010719123417473623
0.0 0.001007679787454361
0.0 0.0009509100776318632
0.0 0.0009012267990445377
0.0 0.0008580656500722237
0.0 0.0008211538735779352
0.0 0.0007900897010769406
0.0 0.0007639781315686529
0.0 0.0007429730828330005
0.0 0.000725431530195332
0.0 0.0007119256084564508
0.0 0.0007019044721965883
0.0 0.0006946205151649992
0.0 0.0006896527224978861
0.0 0.0006860961753363636
0.0 0.0006839231637731466
0.0 0.0006824828642848593
0.0 0.0006815415099807836
0.0 0.0006807093988744553
0.0 0.0006799738103480833
0.0 0.0006790962885532962
0.0 0.0006780134082161758
0.0 0.0006766810331808971
0.0 0.000674906435267384
0.0 0.0006730192414368941
0.0 0.0006710333483679655
0.0 0.0006690429813834461
1.0442485578110267e-17 0.0049272451326618045
2.9333187696527695e-11 0.002773874604444258
6.223746328555829e-06 0.0015404152963833181
2.770972291063924e-05 0.0009285168292540595
2.4046819091366415e-08 0.0014042146941355672
3.146450167119499e-17 0.0022597849426047216
4.323625419222506e-05 0.00059132948374768
1.2638791773662503e-12 0.0012867734739162768
7.921816629055423e-06 0.0007827975675702164
1.161299489508613e-06 0.0007703540163861643
3.1196426575178815e-08 0.0007097650208730866
2.162367533334033e-10 0.0006767769337773981
8.141095914187781e-17 0.014973736461408295
5.854005028386955e-13 0.0006657294861841758
9.172161800079937e-06 0.0004513191800265696
5.410115882125927e-06 0.00043633941819362133
1.7806353737524316e-17 0.001170418081562446
5.657667611240914e-05 0.000511142118712971
4.1596481066218295e-06 0.00039074273736345135
2.582406216518299e-06 0.00042336377642020786
7.22551030432599e-07 0.0004005623100153043
1.081292598479999e-07 0.00037728814850935156
1.0579910888301834e-08 0.000377993318599266
1.3242919720078481e-15 0.0006414990043903451
8.247278405455457e-10 0.0003524702275805121
3.3112823668191203e-11 0.0003911916551410112
-1.0908004058754659e-16 0.048473971154331344
6.718584681289997e-06 0.0002962961684905355
-8.315196328752412e-06 0.0002500896271011892
1.8473648670808688e-12 0.0003340075304309671
4.619036284495328e-14 0.00039557321740229455
6.042923237468095e-17 0.007989497114757204
-2.7532915978929797e-17 0.003711834662427603
-7.275577184440829e-06 0.0002218811556556238
-2.4924512423707537e-06 0.00022947455789259282