# vtk DataFile Version 3.0
Some data
ASCII
DATASET UNSTRUCTURED_GRID
POINTS 7930 float
0.0 0.0 0.0
0.0 10.0 0.0
10.0 10.0 0.0
10.0 0.0 0.0
0.5 0.0 0.0
0.0009999999999981016 0.0 0.0
0.001999999999996203 0.0 0.0
0.002999999999994305 0.0 0.0
0.003999999999992409 0.0 0.0
0.004999999999990531 0.0 0.0
0.005999999999988653 0.0 0.0
0.006999999999986775 0.0 0.0
0.007999999999984898 0.0 0.0
0.008999999999983018 0.0 0.0
0.009999999999981142 0.0 0.0
0.01099999999997926 0.0 0.0
0.01199999999997736 0.0 0.0
0.0129999999999754 0.0 0.0
0.01399999999997343 0.0 0.0
0.01499999999997147 0.0 0.0
0.01599999999996944 0.0 0.0
0.0169999999999673 0.0 0.0
0.01799999999996516 0.0 0.0
0.01899999999996302 0.0 0.0
0.01999999999996084 0.0 0.0
0.02099999999995862 0.0 0.0
0.02199999999995639 0.0 0.0
0.02299999999995417 0.0 0.0
0.02399999999995195 0.0 0.0
0.02499999999994972 0.0 0.0
0.0259999999999475 0.0 0.0
0.02699999999994527 0.0 0.0
0.02799999999994315 0.0 0.0
0.0289999999999411 0.0 0.0
0.02999999999993905 0.0 0.0
0.030999999999937 0.0 0.0
0.03199999999993521 0.0 0.0
0.0329999999999335 0.0 0.0
0.0339999999999318 0.0 0.0
0.03499999999993009 0.0 0.0
0.03599999999992853 0.0 0.0
0.036999999999927 0.0 0.0
0.03799999999992547 0.0 0.0
0.03899999999992394 0.0 0.0
0.03999999999992241 0.0 0.0
0.04099999999992088 0.0 0.0
0.04199999999991934 0.0 0.0
0.04299999999991782 0.0 0.0
0.04399999999991629 0.0 0.0
0.04499999999991475 0.0 0.0
0.04599999999991322 0.0 0.0
0.0469999999999117 0.0 0.0
0.04799999999991016 0.0 0.0
0.04899999999990863 0.0 0.0
0.0499999999999071 0.0 0.0
0.05099999999990557 0.0 0.0
0.05199999999990404 0.0 0.0
0.05299999999990251 0.0 0.0
0.05399999999990097 0.0 0.0
0.05499999999989943 0.0 0.0
0.05599999999989791 0.0 0.0
0.05699999999989638 0.0 0.0
0.05799999999989484 0.0 0.0
0.05899999999989317 0.0 0.0
0.05999999999989129 0.0 0.0
0.06099999999988941 0.0 0.0
0.06199999999988753 0.0 0.0
0.06299999999988531 0.0 0.0
0.06399999999988273 0.0 0.0
0.06499999999988015 0.0 0.0
0.06599999999987759 0.0 0.0
0.0669999999998748 0.0 0.0
0.06799999999987189 0.0 0.0
0.06899999999986897 0.0 0.0
0.06999999999986604 0.0 0.0
0.07099999999986313 0.0 0.0
0.0719999999998602 0.0 0.0
0.07299999999985729 0.0 0.0
0.07399999999985438 0.0 0.0
0.07499999999985145 0.0 0.0
0.07599999999984854 0.0 0.0
0.07699999999984562 0.0 0.0
0.0779999999998427 0.0 0.0
0.07899999999983978 0.0 0.0
0.07999999999983685 0.0 0.0
0.08099999999983394 0.0 0.0
0.08199999999983103 0.0 0.0
0.0829999999998281 0.0 0.0
0.08399999999982519 0.0 0.0
0.08499999999982226 0.0 0.0
0.08599999999981935 0.0 0.0
0.08699999999981643 0.0 0.0
0.0879999999998135 0.0 0.0
0.08899999999981059 0.0 0.0
0.08999999999980766 0.0 0.0
0.09099999999980475 0.0 0.0
0.09199999999980184 0.0 0.0
0.09299999999979891 0.0 0.0
0.093999999999796 0.0 0.0
0.09499999999979307 0.0 0.0
0.09599999999979016 0.0 0.0
0.09699999999978724 0.0 0.0
0.09799999999978432 0.0 0.0
0.0989999999997814 0.0 0.0
0.09999999999977847 0.0 0.0
0.1009999999997756 0.0 0.0
0.1019999999997726 0.0 0.0
0.1029999999997697 0.0 0.0
0.1039999999997668 0.0 0.0
0.1049999999997639 0.0 0.0
0.105999999999761 0.0 0.0
0.106999999999758 0.0 0.0
0.1079999999997551 0.0 0.0
0.1089999999997522 0.0 0.0
0.1099999999997493 0.0 0.0
0.1109999999997464 0.0 0.0
0.1119999999997434 0.0 0.0
0.1129999999997405 0.0 0.0
0.1139999999997376 0.0 0.0
0.1149999999997347 0.0 0.0
0.1159999999997318 0.0 0.0
0.1169999999997288 0.0 0.0
0.1179999999997259 0.0 0.0
0.118999999999723 0.0 0.0
0.1199999999997201 0.0 0.0
0.1209999999997172 0.0 0.0
0.1219999999997143 0.0 0.0
0.1229999999997113 0.0 0.0
0.1239999999997084 0.0 0.0
0.1249999999997055 0.0 0.0
0.1259999999997026 0.0 0.0
0.1269999999996997 0.0 0.0
0.1279999999996967 0.0 0.0
0.1289999999996938 0.0 0.0
0.1299999999996909 0.0 0.0
0.130999999999688 0.0 0.0
0.1319999999996851 0.0 0.0
0.1329999999996822 0.0 0.0
0.1339999999996792 0.0 0.0
0.1349999999996764 0.0 0.0
0.1359999999996734 0.0 0.0
0.1369999999996705 0.0 0.0
0.1379999999996676 0.0 0.0
0.1389999999996647 0.0 0.0
0.1399999999996618 0.0 0.0
0.1409999999996588 0.0 0.0
0.1419999999996559 0.0 0.0
0.142999999999653 0.0 0.0
0.1439999999996501 0.0 0.0
0.1449999999996472 0.0 0.0
0.1459999999996442 0.0 0.0
0.1469999999996414 0.0 0.0
0.1479999999996384 0.0 0.0
0.1489999999996355 0.0 0.0
0.1499999999996326 0.0 0.0
0.1509999999996297 0.0 0.0
0.1519999999996268 0.0 0.0
0.1529999999996239 0.0 0.0
0.1539999999996209 0.0 0.0
0.154999999999618 0.0 0.0
0.1559999999996151 0.0 0.0
0.1569999999996122 0.0 0.0
0.1579999999996093 0.0 0.0
0.1589999999996064 0.0 0.0
0.1599999999996035 0.0 0.0
0.1609999999996005 0.0 0.0
0.1619999999995976 0.0 0.0
0.1629999999995947 0.0 0.0
0.1639999999995918 0.0 0.0
0.1649999999995889 0.0 0.0
0.165999999999586 0.0 0.0
0.1669999999995831 0.0 0.0
0.1679999999995801 0.0 0.0
0.1689999999995772 0.0 0.0
0.1699999999995743 0.0 0.0
0.1709999999995714 0.0 0.0
0.1719999999995685 0.0 0.0
0.1729999999995655 0.0 0.0
0.1739999999995626 0.0 0.0
0.1749999999995597 0.0 0.0
0.1759999999995568 0.0 0.0
0.1769999999995539 0.0 0.0
0.177999999999551 0.0 0.0
0.178999999999548 0.0 0.0
0.1799999999995451 0.0 0.0
0.1809999999995422 0.0 0.0
0.1819999999995393 0.0 0.0
0.1829999999995364 0.0 0.0
0.1839999999995335 0.0 0.0
0.1849999999995305 0.0 0.0
0.1859999999995277 0.0 0.0
0.1869999999995247 0.0 0.0
0.1879999999995218 0.0 0.0
0.1889999999995189 0.0 0.0
0.189999999999516 0.0 0.0
0.1909999999995131 0.0 0.0
0.1919999999995101 0.0 0.0
0.1929999999995072 0.0 0.0
0.1939999999995043 0.0 0.0
0.1949999999995014 0.0 0.0
0.1959999999994985 0.0 0.0
0.1969999999994956 0.0 0.0
0.1979999999994927 0.0 0.0
0.1989999999994897 0.0 0.0
0.1999999999994868 0.0 0.0
0.2009999999994839 0.0 0.0
0.201999999999481 0.0 0.0
0.2029999999994781 0.0 0.0
0.2039999999994752 0.0 0.0
0.2049999999994722 0.0 0.0
0.2059999999994693 0.0 0.0
0.2069999999994664 0.0 0.0
0.2079999999994635 0.0 0.0
0.2089999999994606 0.0 0.0
0.2099999999994577 0.0 0.0
0.2109999999994548 0.0 0.0
0.2119999999994518 0.0 0.0
0.2129999999994489 0.0 0.0
0.213999999999446 0.0 0.0
0.2149999999994431 0.0 0.0
0.2159999999994402 0.0 0.0
0.2169999999994373 0.0 0.0
0.2179999999994343 0.0 0.0
0.2189999999994314 0.0 0.0
0.2199999999994285 0.0 0.0
0.2209999999994256 0.0 0.0
0.2219999999994227 0.0 0.0
0.2229999999994198 0.0 0.0
0.2239999999994168 0.0 0.0
0.2249999999994139 0.0 0.0
0.225999999999411 0.0 0.0
0.2269999999994081 0.0 0.0
0.2279999999994052 0.0 0.0
0.2289999999994023 0.0 0.0
0.2299999999993994 0.0 0.0
0.2309999999993964 0.0 0.0
0.2319999999993935 0.0 0.0
0.2329999999993906 0.0 0.0
0.2339999999993877 0.0 0.0
0.2349999999993848 0.0 0.0
0.2359999999993818 0.0 0.0
0.236999999999379 0.0 0.0
0.237999999999376 0.0 0.0
0.2389999999993731 0.0 0.0
0.2399999999993702 0.0 0.0
0.2409999999993673 0.0 0.0
0.2419999999993644 0.0 0.0
0.2429999999993615 0.0 0.0
0.2439999999993585 0.0 0.0
0.2449999999993556 0.0 0.0
0.2459999999993527 0.0 0.0
0.246999999999351 0.0 0.0
0.2479999999993495 0.0 0.0
0.248999999999348 0.0 0.0
0.2499999999993464 0.0 0.0
0.2509999999993477 0.0 0.0
0.2519999999993489 0.0 0.0
0.2529999999993502 0.0 0.0
0.2539999999993516 0.0 0.0
0.2549999999993542 0.0 0.0
0.2559999999993569 0.0 0.0
0.2569999999993595 0.0 0.0
0.2579999999993621 0.0 0.0
0.2589999999993647 0.0 0.0
0.2599999999993673 0.0 0.0
0.26099999999937 0.0 0.0
0.2619999999993726 0.0 0.0
0.2629999999993753 0.0 0.0
0.2639999999993779 0.0 0.0
0.2649999999993806 0.0 0.0
0.2659999999993832 0.0 0.0
0.2669999999993858 0.0 0.0
0.2679999999993884 0.0 0.0
0.2689999999993911 0.0 0.0
0.2699999999993937 0.0 0.0
0.2709999999993963 0.0 0.0
0.271999999999399 0.0 0.0
0.2729999999994017 0.0 0.0
0.2739999999994043 0.0 0.0
0.2749999999994069 0.0 0.0
0.2759999999994096 0.0 0.0
0.2769999999994122 0.0 0.0
0.2779999999994148 0.0 0.0
0.2789999999994174 0.0 0.0
0.2799999999994201 0.0 0.0
0.2809999999994228 0.0 0.0
0.2819999999994254 0.0 0.0
0.282999999999428 0.0 0.0
0.2839999999994306 0.0 0.0
0.2849999999994333 0.0 0.0
0.2859999999994359 0.0 0.0
0.2869999999994385 0.0 0.0
0.2879999999994411 0.0 0.0
0.2889999999994439 0.0 0.0
0.2899999999994465 0.0 0.0
0.2909999999994491 0.0 0.0
0.2919999999994517 0.0 0.0
0.2929999999994544 0.0 0.0
0.293999999999457 0.0 0.0
0.2949999999994596 0.0 0.0
0.2959999999994622 0.0 0.0
0.2969999999994649 0.0 0.0
0.2979999999994676 0.0 0.0
0.2989999999994702 0.0 0.0
0.2999999999994728 0.0 0.0
0.3009999999994754 0.0 0.0
0.3019999999994781 0.0 0.0
0.3029999999994807 0.0 0.0
0.3039999999994834 0.0 0.0
0.304999999999486 0.0 0.0
0.3059999999994886 0.0 0.0
0.3069999999994913 0.0 0.0
0.3079999999994939 0.0 0.0
0.3089999999994965 0.0 0.0
0.3099999999994992 0.0 0.0
0.3109999999995018 0.0 0.0
0.3119999999995045 0.0 0.0
0.3129999999995071 0.0 0.0
0.3139999999995097 0.0 0.0
0.3149999999995123 0.0 0.0
0.315999999999515 0.0 0.0
0.3169999999995176 0.0 0.0
0.3179999999995203 0.0 0.0
0.3189999999995229 0.0 0.0
0.3199999999995256 0.0 0.0
0.3209999999995282 0.0 0.0
0.3219999999995308 0.0 0.0
0.3229999999995334 0.0 0.0
0.323999999999536 0.0 0.0
0.3249999999995387 0.0 0.0
0.3259999999995414 0.0 0.0
0.326999999999544 0.0 0.0
0.3279999999995466 0.0 0.0
0.3289999999995493 0.0 0.0
0.3299999999995519 0.0 0.0
0.3309999999995545 0.0 0.0
0.3319999999995571 0.0 0.0
0.3329999999995598 0.0 0.0
0.3339999999995625 0.0 0.0
0.3349999999995651 0.0 0.0
0.3359999999995677 0.0 0.0
0.3369999999995703 0.0 0.0
0.337999999999573 0.0 0.0
0.3389999999995756 0.0 0.0
0.3399999999995783 0.0 0.0
0.3409999999995809 0.0 0.0
0.3419999999995835 0.0 0.0
0.3429999999995862 0.0 0.0
0.3439999999995888 0.0 0.0
0.3449999999995914 0.0 0.0
0.345999999999594 0.0 0.0
0.3469999999995967 0.0 0.0
0.3479999999995994 0.0 0.0
0.348999999999602 0.0 0.0
0.3499999999996046 0.0 0.0
0.3509999999996072 0.0 0.0
0.3519999999996099 0.0 0.0
0.3529999999996125 0.0 0.0
0.3539999999996151 0.0 0.0
0.3549999999996178 0.0 0.0
0.3559999999996205 0.0 0.0
0.3569999999996231 0.0 0.0
0.3579999999996257 0.0 0.0
0.3589999999996283 0.0 0.0
0.359999999999631 0.0 0.0
0.3609999999996336 0.0 0.0
0.3619999999996362 0.0 0.0
[...]
POINT_DATA 7930
SCALARS Disp float 2
LOOKUP_TABLE default
0.0 0.0021804796609089334
0.0 0.1
0.0 0.1
0.0 0.0
2.328023734105797e-08 0.0
-6.879800360607457e-06 0.0021803853301740825
-1.3683728661877961e-05 0.00217989599303827
-2.046726384340248e-05 0.0021794794545365644
-2.7391806267760502e-05 0.002178985979405696
-3.416784462354171e-05 0.0021778144076959496
-4.0839145894391925e-05 0.002176355515507143
-4.779816937721923e-05 0.002175580190180026
-5.4901152300318504e-05 0.002174453649852695
-6.15385677719602e-05 0.0021718182254382825
-6.780441795380362e-05 0.0021692140797820417
-7.456691164260257e-05 0.0021684149541384905
-8.2200352050848e-05 0.0021670327826733985
-8.920231379077975e-05 0.00216329938988883
-9.53319250082585e-05 0.0021593280382857607
-0.00010189852030466511 0.0021575360261295562
-0.00010938577367879715 0.002155858731803548
-0.00011669393328506223 0.002151443715988369
-0.00012279590701142482 0.0021463506977885227
-0.0001292563398829425 0.0021436168473978213
-0.00013694182637150406 0.002141464435852012
-0.00014425343020105233 0.002135655279094165
-0.00015020052732353663 0.002129378658249084
-0.00015649459349244084 0.0021260809902270386
-0.00016421395391680557 0.0021232824058948227
-0.00017171501414141486 0.0021167378816031555
-0.0001776185847915272 0.002109056523019137
-0.00018394994450808395 0.0021049250999556853
-0.00019162741737561455 0.0021014829705289857
-0.00019905152743548396 0.00209439170657034
-0.00020509594030724456 0.002085716272569508
-0.00021126585140071946 0.0020801609144114985
-0.00021878073998012133 0.0020760744793060725
-0.00022642761274128929 0.00206821860202425
-0.00023261255713548983 0.0020580417509779105
-0.00023867978331039173 0.002051645043142985
-0.0002462619237865931 0.0020469487436906085
-0.00025391360074676525 0.0020381104954867208
-0.0002599685376054758 0.0020266225853914147
-0.0002658597021156979 0.002018994594888677
-0.0002734006967472414 0.002013758566776525
-0.0002812435360277536 0.002004123907798357
-0.00028743176491284475 0.0019913161816245027
-0.00029330120694827816 0.0019825218775052387
-0.0003008060356687548 0.001976372040035065
-0.0003088121460550573 0.0019659239581069875
-0.00031510712714604463 0.0019515669154850268
-0.0003205331333438659 0.001940905760683754
-0.00032767810454008994 0.0019341154510625158
-0.0003357705912305981 0.0019231202310006784
-0.00034222786786669253 0.001907783348939413
-0.00034770721527661885 0.0018958993473258486
-0.00035490907018198624 0.001887974933198277
-0.0003633375387097063 0.001876141851080112
-0.0003700539445608236 0.0018590641067380799
-0.0003753278534426278 0.0018456532031804896
-0.00038232863164503194 0.0018366207162294219
-0.00039062879920956036 0.0018236637581088013
-0.00039755700862729825 0.001805188031310377
-0.00040282468375303426 0.0017897150841483978
-0.0004097737759828369 0.0017791983593117562
-0.00041807918073476696 0.0017653010625308637
-0.00042488513659950336 0.0017454057924402148
-0.00043031457520123923 0.0017281661502737999
-0.00043703113286895927 0.0017160152324863006
-0.0004454224270041275 0.0017005874694340842
-0.00045221014952950036 0.0016788904744809109
-0.0004573860227756962 0.001659530833499794
-0.00046379240869318095 0.0016458778732582461
-0.00047215408236953715 0.0016293328391438783
-0.0004791543326634191 0.0016059981069636363
-0.00048449606443033856 0.0015842867690102319
-0.0004908618830551576 0.0015686722508226345
-0.0004991350797189627 0.0015503993934646507
-0.0005064399236052849 0.0015249046966078937
-0.0005116183682877206 0.0015005965090904825
-0.0005178210719124671 0.0014826105372854079
-0.0005263266876701338 0.0014624466243510308
-0.0005335872143283946 0.0014344408422627864
-0.0005386493751814187 0.0014070232319781954
-0.0005445016641157753 0.001386189475878926
-0.0005529872876833821 0.00136349229657169
-0.0005608204070611738 0.0013328101263950375
-0.000566145971333524 0.0013016797395444164
-0.000572306060238747 0.0012770791912376722
-0.0005801707673565566 0.0012513526113372424
-0.0005880263632330665 0.0012165113118232872
-0.0005936171152898364 0.0011805400095721633
-0.0005990854973131597 0.0011515326578306127
-0.0006075167247912078 0.001121364203167438
-0.0006151036124769189 0.0010816935862230546
-0.0006207323030688805 0.0010398332930348952
-0.0006263389570787691 0.0010037856575177834
-0.0006338489057829995 0.0009669536676375035
-0.00064219017657902 0.000919661937479056
-0.0006477213046009577 0.0008684648817505104
-0.0006531331021401638 0.0008225333711855735
-0.0006618781795323613 0.0007737394937299475
-0.0006696149466142261 0.0007118524001133184
-0.0006752745606272104 0.0006419060794138696
-0.0006808263629977686 0.0005727341488371914
-0.0006866035721841261 0.0004953829420872843
-0.0006950208741061423 0.0003916178305427571
-0.0006934792707319458 0.0002494081468312728
-0.0006546761422614042 0.0
-0.0006016853564195635 0.0
-0.000567696580325763 0.0
-0.0005417328453100853 0.0
-0.0005221911629209943 0.0
-0.0005038130089907329 0.0
-0.0004883006799253828 0.0
-0.00047459307192591383 0.0
-0.0004619359941481578 0.0
-0.00045034294979002734 0.0
-0.00043964002926769025 0.0
-0.0004295675806023337 0.0
-0.0004201602675362114 0.0
-0.0004113516090766853 0.0
-0.000403033910380148 0.0
-0.00039527586295051584 0.0
-0.0003876238879288933 0.0
-0.0003805043155830666 0.0
-0.0003736589685900982 0.0
-0.0003671566030161087 0.0
-0.000360836871949925 0.0
-0.00035482105381070146 0.0
-0.0003490225467304387 0.0
-0.00034342825124468755 0.0
-0.00033802603906364664 0.0
-0.00033281735475988977 0.0
-0.00032778078177750407 0.0
-0.0003229005354499121 0.0
-0.0003181645803998359 0.0
-0.00031359535116640374 0.0
-0.0003091878742419262 0.0
-0.0003048381998306816 0.0
-0.00030065331870107205 0.0
-0.0002965656441795371 0.0
-0.00029259317439344766 0.0
-0.0002887193276397729 0.0
-0.0002849448089027514 0.0
-0.0002812704966799655 0.0
-0.00027769067586374277 0.0
-0.0002741975634710733 0.0
-0.00027077683206909475 0.0
-0.00026743967923859214 0.0
-0.00026418051177031675 0.0
-0.00026098954392161553 0.0
-0.0002578725220717272 0.0
-0.0002548213610578495 0.0
-0.00025182836208680233 0.0
-0.000248896718269243 0.0
-0.00024602486953294306 0.0
-0.00024320561135872683 0.0
-0.00024043935997346077 0.0
-0.00023773132059731565 0.0
-0.0002350843342896388 0.0
-0.0002324642051768855 0.0
-0.0002299163342670318 0.0
-0.00022740897335876394 0.0
-0.00022494791897210845 0.0
-0.00022254063557318004 0.0
-0.00022015153383719588 0.0
-0.00021782472592140595 0.0
-0.00021553584710708423 0.0
-0.0002132835268889354 0.0
-0.00021107084707216913 0.0
-0.00020889386527221006 0.0
-0.00020675074608234243 0.0
-0.00020463946089919758 0.0
-0.0002025611637551399 0.0
-0.00020051344770736747 0.0
-0.00019849267808763125 0.0
-0.00019650547289670924 0.0
-0.0001945509512476354 0.0
-0.00019262368833990057 0.0
-0.00019072383351042207 0.0
-0.00018885413669346093 0.0
-0.00018701485687761622 0.0
-0.00018519892246081498 0.0
-0.000183410046846297 0.0
-0.00018164944907420928 0.0
-0.00017991282134523218 0.0
-0.00017819989609443518 0.0
-0.00017651131185363964 0.0
-0.00017484844034443986 0.0
-0.0001732054258177768 0.0
-0.00017158463177732825 0.0
-0.00016998481491984745 0.0
-0.00016840457152420292 0.0
-0.00016684533748815994 0.0
-0.00016530697705366017 0.0
-0.0001637856031108365 0.0
-0.00016228296211108378 0.0
-0.0001607975704325213 0.0
-0.00015932999927662888 0.0
-0.0001578823362554286 0.0
-0.00015645104304638733 0.0
-0.0001550353260868743 0.0
-0.0001536386194181706 0.0
-0.00015225668373234865 0.0
-0.00015089143677124458 0.0
-0.00014954378170425444 0.0
-0.0001482120434480681 0.0
-0.00014689485646459367 0.0
-0.0001455958879788375 0.0
-0.00014430647152844628 0.0
-0.00014303170457099167 0.0
-0.0001417711092092365 0.0
-0.00014052562797259944 0.0
-0.000139292412960353 0.0
-0.00013807187972305132 0.0
-0.00013686438819867567 0.0
-0.00013566796877647385 0.0
-0.00013448313870243294 0.0
-0.0001333145728788227 0.0
-0.00013215022805630937 0.0
-0.00013100060950220225 0.0
-0.00012986321220175213 0.0
-0.00012873538814284127 0.0
-0.00012761908816925265 0.0
-0.000126514283085159 0.0
-0.0001254203956150215 0.0
-0.00012433713938811975 0.0
-0.0001232651735514792 0.0
-0.00012220424191628824 0.0
-0.00012115360753979241 0.0
-0.00012011441370874253 0.0
-0.00011908543232109281 0.0
-0.0001180666467574098 0.0
-0.00011705868187122583 0.0
-0.00011605991682318585 0.0
-0.00011507011053098756 0.0
-0.00011409055023573073 0.0
-0.00011312057939237155 0.0
-0.0001121586859323061 0.0
-0.00011120702407651249 0.0
-0.00011026381034597226 0.0
-0.00010932988461519004 0.0
-0.00010840474526232555 0.0
-0.00010748800801986415 0.0
-0.00010657943409584783 0.0
-0.00010567911875167924 0.0
-0.00010478751167286768 0.0
-0.00010390341698218631 0.0
-0.00010302759558929003 0.0
-0.00010216093735378403 0.0
-0.00010130101525533485 0.0
-0.00010044875701038328 0.0
-9.960499225602788e-05 0.0
-9.87684566594086e-05 0.0
-9.793931069341765e-05 0.0
-9.711723739107048e-05 0.0
-9.630146207072509e-05 0.0
-9.549249746793737e-05 0.0
-9.469051870605572e-05 0.0
-9.389424457557937e-05 0.0
-9.310404049608143e-05 0.0
-9.231960881106628e-05 0.0
-9.154108093135321e-05 0.0
-9.076831575355118e-05 0.0
-9.000106723376973e-05 0.0
-8.923901889013283e-05 0.0
-8.848199833214672e-05 0.0
-8.77305567080123e-05 0.0
-8.698423321921058e-05 0.0
-8.624355131802818e-05 0.0
-8.550851821880402e-05 0.0
-8.477904358544726e-05 0.0
-8.405313360886047e-05 0.0
-8.33359335176318e-05 0.0
-8.262196812218148e-05 0.0
-8.191598573177883e-05 0.0
-8.121365312668382e-05 0.0
-8.051766986447564e-05 0.0
-7.982773351826766e-05 0.0
-7.914394060507293e-05 0.0
-7.846620032046972e-05 0.0
-7.779419816374214e-05 0.0
-7.712821387576246e-05 0.0
-7.646821821921981e-05 0.0
-7.581378139699296e-05 0.0
-7.516467467577995e-05 0.0
-7.452118884790238e-05 0.0
-7.38830956807467e-05 0.0
-7.324989302918722e-05 0.0
-7.262176057602154e-05 0.0
-7.199870881795439e-05 0.0
-7.1380564884247e-05 0.0
-7.076729478918911e-05 0.0
-7.015613282960118e-05 0.0
-6.95509920513483e-05 0.0
-6.895003551063139e-05 0.0
-6.835317298483265e-05 0.0
-6.776163671783607e-05 0.0
-6.717216450037468e-05 0.0
-6.658708404213976e-05 0.0
-6.600628031857988e-05 0.0
-6.542967353791911e-05 0.0
-6.4856769943948e-05 0.0
-6.428779789995501e-05 0.0
-6.372264521122276e-05 0.0
-6.3161677057611e-05 0.0
-6.260458521113399e-05 0.0
-6.205140357370255e-05 0.0
-6.150230077852014e-05 0.0
-6.0957358317511376e-05 0.0
-6.041651378244797e-05 0.0
-5.987769429450062e-05 0.0
-5.934377032456762e-05 0.0
-5.8813794172504825e-05 0.0
-5.8287692276166276e-05 0.0
-5.776632833169e-05 0.0
-5.724643472363819e-05 0.0
-5.6730271427007823e-05 0.0
-5.621779520887731e-05 0.0
-5.57087589595698e-05 0.0
-5.520279145132998e-05 0.0
-5.4700528572850665e-05 0.0
-5.4201245726556167e-05 0.0
-5.370516290501369e-05 0.0
-5.321187832621679e-05 0.0
-5.272153246096041e-05 0.0
-5.223415563480253e-05 0.0
-5.1749331974474246e-05 0.0
-5.12674126389442e-05 0.0
-5.078872402266831e-05 0.0
-5.031236979830733e-05 0.0
-4.98386628308192e-05 0.0
-4.936799321090077e-05 0.0
-4.890005870451234e-05 0.0
-4.843469985204701e-05 0.0
-4.7972257033946096e-05 0.0
-4.75124033870344e-05 0.0
-4.7055515055001744e-05 0.0
-4.6601388385087705e-05 0.0
-4.614998258649457e-05 0.0
-4.5701271304951285e-05 0.0
-4.525536720852601e-05 0.0
-4.48125113905916e-05 0.0
-4.4372549509195526e-05 0.0
-4.393533849698031e-05 0.0
-4.350086183981162e-05 0.0
-4.3069347034035925e-05 0.0
-4.264070025084559e-05 0.0
-4.221469246447063e-05 0.0
-4.179169222878686e-05 0.0
-4.137156689454867e-05 0.0
-4.095427720261238e-05 0.0
-4.053967418702839e-05 0.0
-4.0127822183192504e-05 0.0
-3.9718717844138964e-05 0.0
-3.9312156321136454e-05 0.0
-3.890839206424621e-05 0.0
-3.8507173080732786e-05 0.0
-3.810844796025123e-05 0.0
-3.77121907247119e-05 0.0
-3.73185042403591e-05 0.0
-3.6927366437175526e-05 0.0
-3.653858895546462e-05 0.0
-3.6152164717802815e-05 0.0
-3.576813675477121e-05 0.0
-3.5386419844100305e-05 0.0
-3.500707011575992e-05 0.0
-3.4630017066006085e-05 0.0
-3.42552033678486e-05 0.0
-3.388259046793217e-05 0.0
-3.351226498865213e-05 0.0
-3.3144218421123615e-05 0.0
-3.277848482035382e-05 0.0
-3.2413965530057744e-05 0.0
-3.205214660069125e-05 0.0
-3.169254072208047e-05 0.0
-3.133504586509254e-05 0.0
-3.097967678374331e-05 0.0
-3.062644248980639e-05 0.0
-3.0275302303023272e-05 0.0
-2.9926188105506924e-05 0.0
-2.9579244403903375e-05 0.0
-2.9234266606386126e-05 0.0
-2.8891417002517608e-05 0.0
-2.855070932068554e-05 0.0
-2.8212064615262017e-05 0.0
-2.787551606677906e-05 0.0
-2.7541167428499236e-05 0.0
-2.7208662100901484e-05 0.0
-2.6878279088242133e-05 0.0
-2.654993588657267e-05 0.0
-2.6223657462796444e-05 0.0
-2.5899369164993626e-05 0.0
-2.557707268311375e-05 0.0
-2.525679982128467e-05 0.0
-2.4938446670174424e-05 0.0
-2.46220513266047e-05 0.0
-2.430762854749064e-05 0.0
-2.3995162918666235e-05 0.0
-2.3684506800831233e-05 0.0
-2.3375711135121563e-05 0.0
-2.306875021644402e-05 0.0
-2.2763465431498025e-05 0.0
-2.24601534544116e-05 0.0
-2.2158553126696355e-05 0.0
-2.18586295119342e-05 0.0
-2.1560486186939283e-05 0.0
-2.1264113137627395e-05 0.0
-2.0969337399615573e-05 0.0
-2.0676173773707534e-05 0.0
-2.0384684176799606e-05 0.0
-2.009488859613854e-05 0.0
-1.980660782544881e-05 0.0
-1.951993345498147e-05 0.0
-1.9234758395948447e-05 0.0
-1.895108477298733e-05 0.0
-1.86691380994161e-05 0.0
-1.838888806555626e-05 0.0
-1.8110184584497766e-05 0.0
-1.7833156663541813e-05 0.0
-1.755776253749563e-05 0.0
-1.728395528656321e-05 0.0
-1.7011822853457505e-05 0.0
-1.674125955128009e-05 0.0
-1.647243530706658e-05 0.0
-1.6205374516172874e-05 0.0
-1.593998755701067e-05 0.0
-1.5676264907331606e-05 0.0
-1.5414365338942972e-05 0.0
-1.515428384438178e-05 0.0
-1.4895914582913706e-05 0.0
-1.4639306223633234e-05 0.0
-1.4384416203763756e-05 0.0
-1.413134490917367e-05 0.0
-1.3880073254506442e-05 0.0
-1.3630484453649327e-05 0.0
-1.3382669283606592e-05 0.0
-1.3136781073802136e-05 0.0
-1.289233375388335e-05 0.0
-1.2649665383286965e-05 0.0
-1.2408720554728984e-05 0.0
-1.2169506624389218e-05 0.0
-1.1931853982551808e-05 0.0
-1.1695709323418757e-05 0.0
-1.1461188067980522e-05 0.0
-1.1228210923097473e-05 0.0
-1.0996779984740552e-05 0.0
-1.076693418824097e-05 0.0
-1.0538207905503356e-05 0.0
-1.0310944729822658e-05 0.0
-1.0085027879898406e-05 0.0
-9.860433151202892e-06 0.0
-9.637047494581057e-06 0.0
-9.414963011925171e-06 0.0
-9.19407131055104e-06 0.0
-8.974324880167496e-06 0.0
-8.755751393369867e-06 0.0
-8.538289197350058e-06 0.0
-8.322021570860836e-06 0.0
-8.106899775728342e-06 0.0
-7.89300632376797e-06 0.0
-7.68004758348388e-06 0.0
-7.46840173331699e-06 0.0
-7.2579356833800446e-06 0.0
-7.0487346780625565e-06 0.0
-6.840690636762826e-06 0.0
-6.6338876009131244e-06 0.0
-6.428274854109298e-06 0.0
-6.223981377323415e-06 0.0
-6.021098392008679e-06 0.0
-5.819560970659174e-06 0.0
-5.619324771660201e-06 0.0
-5.420517159492606e-06 0.0
-5.2230808479726425e-06 0.0
-5.0271321857039274e-06 0.0
-4.8326682565142265e-06 0.0
-4.6397632417868834e-06 0.0
-4.448396290170422e-06 0.0
-4.258559617148621e-06 0.0
-4.070352999216007e-06 0.0
-3.883726757260487e-06 0.0
-3.6986760473186215e-06 0.0
-3.5151687869927216e-06 0.0
-3.3331933727206906e-06 0.0
-3.152783711827757e-06 0.0
-2.9739371263239255e-06 0.0
-2.796588610148014e-06 0.0
-2.6206312221577945e-06 0.0
-2.4462104342005595e-06 0.0
-2.27323928241238e-06 0.0
-2.1016429060900526e-06 0.0
-1.9314613823410565e-06 0.0
-1.7624805228784288e-06 0.0
-1.5947322976807344e-06 0.0
-1.4282200466577467e-06 0.0
-1.262828700846245e-06 0.0
-1.0985010431552165e-06 0.0
-9.352652342168439e-07 0.0
-7.731164772178747e-07 0.0
-6.119927269171828e-07 0.0
-4.518323562596584e-07 0.0
-2.925437187025782e-07 0.0
-1.3419989825218675e-07 0.0
1.8557404333198804e-07 0.0
3.609341648013135e-07 0.0
5.504412866831399e-07 0.0
7.551109985636464e-07 0.0
9.760117217409869e-07 0.0
1.2142714719444844e-06 0.0
1.4708826079205737e-06 0.0
1.746837624601224e-06 0.0
2.043193839338391e-06 0.0
2.3605734359671712e-06 0.0
2.6993332762926555e-06 0.0
3.059769273232784e-06 0.0
3.4405989392263215e-06 0.0
3.841756856272352e-06 0.0
4.2608714345592345e-06 0.0
4.694994839067716e-06 0.0
5.139157659125181e-06 0.0
5.59163837644534e-06 0.0
6.047692306786542e-06 0.0
6.508198826874132e-06 0.0
6.969871644066452e-06 0.0
7.429326596602482e-06 0.0
7.874545317443648e-06 0.0
8.311249852477689e-06 0.0
8.70781473149793e-06 0.0
9.05323132456281e-06 0.0
9.31840794504353e-06 0.0
9.498719215144505e-06 0.0
9.609529282895409e-06 0.0
9.654669807203111e-06 0.0
9.621145502205599e-06 0.0
9.470358402080916e-06 0.0
9.16746214283378e-06 0.0
8.724256111961139e-06 0.0
8.20002640645467e-06 0.0
7.5889908119188956e-06 0.0
6.803891830634681e-06 0.0
5.836321045403966e-06 0.0
4.846088725038414e-06 0.0
3.850337787619251e-06 0.0
2.704577643467641e-06 0.0
1.487193470165721e-06 0.0
5.727350870566192e-07 0.0
1.2980552325085255e-07 0.0
1.194521906605633e-08 0.0
4.434976223006281e-10 0.0
-1.499084382976425e-11 0.0
-7.068852492790287e-12 0.0
-6.6014250135892054e-12 0.0
-2.1400856593634663e-13 0.0
-1.1293187913933856e-13 0.0
-1.5426284352918944e-13 0.0
-5.677639450345874e-14 0.0
-5.018731236958553e-14 0.0
9.566331587237578e-15 0.0
2.1068304106593676e-14 0.0
4.9993342448244926e-15 0.0
-6.684585506028062e-16 0.0
7.651125609738524e-16 0.0
1.5263432689930302e-16 0.0
3.0525328239576094e-16 0.0
5.983262898363881e-16 0.0
3.407500117728142e-16 0.0
9.759972082689369e-17 0.0
-2.491349872108621e-16 0.0
-6.21767574919214e-16 0.0
-2.7381185751854116e-16 0.0
3.424711952170293e-16 0.0
-2.8718015400921514e-16 0.0
-2.2103007318804697e-16 0.0
1.0409359970018941e-15 0.0
5.444187213885652e-16 0.0
-2.0011901558966604e-15 0.0
1.0089616811837647e-15 0.0
2.225679694997803e-15 0.0
-3.2703855582881662e-15 0.0
7.892011649169227e-16 0.0
1.713696223211011e-15 0.0
-2.3026276384128128e-15 0.0
0.0 0.009234165287259375
0.0 0.02210978593046549
0.0 0.04006285207143908
0.0 0.06509563926307133
-3.596519385588773e-15 0.1
-4.459833882911995e-15 0.1
5.163453926133782e-14 0.1
-5.221825571642487e-14 0.1
0.0 0.09234095951657428
0.0 0.08526779443703128
0.0 0.0787356878349939
0.0 0.07270325358165798
0.0 0.06713226878989899
0.0 0.06198743331090385
0.0 0.057236152337951034
0.0 0.05284831692952671
0.0 0.04879612844994167
0.0 0.04505391065784975
0.0 0.041597952827135375
0.0 0.038406357242578036
0.0 0.03545890171822749
0.0 0.03273691087333786
0.0 0.03022313773603811
0.0 0.02790165483820472
0.0 0.0257577530019742
0.0 0.023777848352109585
0.0 0.02194939580761504
0.0 0.02026081025846533
0.0 0.0187013922109262
0.0 0.01726126163546214
0.0 0.01593129342636591
0.0 0.0147030582937299
0.0 0.013568784615526191
0.0 0.012521254633539172
0.0 0.011553900311035741
0.0 0.01066063394549569
0.0 0.009834627731930395
0.0 0.009076908918795278
0.0 0.008381977625799798
0.0 0.00774410701841494
0.0 0.0071594938781022995
0.0 0.006624305940180593
0.0 0.006134736219474029
0.0 0.005689532537246665
0.0 0.005284233865306888
0.0 0.004916162970732859
0.0 0.00458255602267348
0.0 0.004280062972347673
0.0 0.004006899403127356
0.0 0.0037612187580485464
0.0 0.003540412188218082
0.0 0.0033434559305216237
0.0 0.0031691006016584624
0.0 0.0030148383446284535
0.0 0.0028793338653407764
0.0 0.0027617810578412535
0.0 0.0026599362809784383
0.0 0.0025730834545961935
0.0 0.0025007378613583504
0.0 0.0024397709645881233
0.0 0.0023899854388325253
0.0 0.002350344192558961
0.0 0.0023181162752946064
0.0 0.0022933006328822803
0.0 0.0022744215174504453
0.0 0.002260705727882968
0.0 0.002250557746187584
0.0 0.002243439636083177
0.0 0.0022382995717935296
0.0 0.0022344893179441546
0.0 0.002232084376841139
0.0 0.002229653084679595
0.0 0.0022282033271067694
0.0 0.00222603343333886
0.0 0.0022242694768059607
0.0 0.0022223777897609313
0.0 0.002220269404350636
0.0 0.002218006529255527
0.0 0.00221544994728636
0.0 0.0022128129781812515
0.0 0.0022100475490426214
0.0 0.002207231819282712
0.0 0.0022043098614188575
0.0 0.0022014280988137142
0.0 0.0021985557511936516
0.0 0.00219573031343641
0.0 0.0021929874538761988
0.0 0.002190305739522132
0.0 0.0021877271413588517
0.0 0.0021851961314904664
0.0 0.0021827993646705603