# vtk DataFile Version 3.0
Some data
ASCII
DATASET UNSTRUCTURED_GRID
POINTS 7930 float
0.0 0.0 0.0
0.0 10.0 0.0
10.0 10.0 0.0
10.0 0.0 0.0
0.5 0.0 0.0
0.0009999999999981016 0.0 0.0
0.001999999999996203 0.0 0.0
0.002999999999994305 0.0 0.0
0.003999999999992409 0.0 0.0
0.004999999999990531 0.0 0.0
0.005999999999988653 0.0 0.0
0.006999999999986775 0.0 0.0
0.007999999999984898 0.0 0.0
0.008999999999983018 0.0 0.0
0.009999999999981142 0.0 0.0
0.01099999999997926 0.0 0.0
0.01199999999997736 0.0 0.0
0.0129999999999754 0.0 0.0
0.01399999999997343 0.0 0.0
0.01499999999997147 0.0 0.0
0.01599999999996944 0.0 0.0
0.0169999999999673 0.0 0.0
0.01799999999996516 0.0 0.0
0.01899999999996302 0.0 0.0
0.01999999999996084 0.0 0.0
0.02099999999995862 0.0 0.0
0.02199999999995639 0.0 0.0
0.02299999999995417 0.0 0.0
0.02399999999995195 0.0 0.0
0.02499999999994972 0.0 0.0
0.0259999999999475 0.0 0.0
0.02699999999994527 0.0 0.0
0.02799999999994315 0.0 0.0
0.0289999999999411 0.0 0.0
0.02999999999993905 0.0 0.0
0.030999999999937 0.0 0.0
0.03199999999993521 0.0 0.0
0.0329999999999335 0.0 0.0
0.0339999999999318 0.0 0.0
0.03499999999993009 0.0 0.0
0.03599999999992853 0.0 0.0
0.036999999999927 0.0 0.0
0.03799999999992547 0.0 0.0
0.03899999999992394 0.0 0.0
0.03999999999992241 0.0 0.0
0.04099999999992088 0.0 0.0
0.04199999999991934 0.0 0.0
0.04299999999991782 0.0 0.0
0.04399999999991629 0.0 0.0
0.04499999999991475 0.0 0.0
0.04599999999991322 0.0 0.0
0.0469999999999117 0.0 0.0
0.04799999999991016 0.0 0.0
0.04899999999990863 0.0 0.0
0.0499999999999071 0.0 0.0
0.05099999999990557 0.0 0.0
0.05199999999990404 0.0 0.0
0.05299999999990251 0.0 0.0
0.05399999999990097 0.0 0.0
0.05499999999989943 0.0 0.0
0.05599999999989791 0.0 0.0
0.05699999999989638 0.0 0.0
0.05799999999989484 0.0 0.0
0.05899999999989317 0.0 0.0
0.05999999999989129 0.0 0.0
0.06099999999988941 0.0 0.0
0.06199999999988753 0.0 0.0
0.06299999999988531 0.0 0.0
0.06399999999988273 0.0 0.0
0.06499999999988015 0.0 0.0
0.06599999999987759 0.0 0.0
0.0669999999998748 0.0 0.0
0.06799999999987189 0.0 0.0
0.06899999999986897 0.0 0.0
0.06999999999986604 0.0 0.0
0.07099999999986313 0.0 0.0
0.0719999999998602 0.0 0.0
0.07299999999985729 0.0 0.0
0.07399999999985438 0.0 0.0
0.07499999999985145 0.0 0.0
0.07599999999984854 0.0 0.0
0.07699999999984562 0.0 0.0
0.0779999999998427 0.0 0.0
0.07899999999983978 0.0 0.0
0.07999999999983685 0.0 0.0
0.08099999999983394 0.0 0.0
0.08199999999983103 0.0 0.0
0.0829999999998281 0.0 0.0
0.08399999999982519 0.0 0.0
0.08499999999982226 0.0 0.0
0.08599999999981935 0.0 0.0
0.08699999999981643 0.0 0.0
0.0879999999998135 0.0 0.0
0.08899999999981059 0.0 0.0
0.08999999999980766 0.0 0.0
0.09099999999980475 0.0 0.0
0.09199999999980184 0.0 0.0
0.09299999999979891 0.0 0.0
0.093999999999796 0.0 0.0
0.09499999999979307 0.0 0.0
0.09599999999979016 0.0 0.0
0.09699999999978724 0.0 0.0
0.09799999999978432 0.0 0.0
0.0989999999997814 0.0 0.0
0.09999999999977847 0.0 0.0
0.1009999999997756 0.0 0.0
0.1019999999997726 0.0 0.0
0.1029999999997697 0.0 0.0
0.1039999999997668 0.0 0.0
0.1049999999997639 0.0 0.0
0.105999999999761 0.0 0.0
0.106999999999758 0.0 0.0
0.1079999999997551 0.0 0.0
0.1089999999997522 0.0 0.0
0.1099999999997493 0.0 0.0
0.1109999999997464 0.0 0.0
0.1119999999997434 0.0 0.0
0.1129999999997405 0.0 0.0
0.1139999999997376 0.0 0.0
0.1149999999997347 0.0 0.0
0.1159999999997318 0.0 0.0
0.1169999999997288 0.0 0.0
0.1179999999997259 0.0 0.0
0.118999999999723 0.0 0.0
0.1199999999997201 0.0 0.0
0.1209999999997172 0.0 0.0
0.1219999999997143 0.0 0.0
0.1229999999997113 0.0 0.0
0.1239999999997084 0.0 0.0
0.1249999999997055 0.0 0.0
0.1259999999997026 0.0 0.0
0.1269999999996997 0.0 0.0
0.1279999999996967 0.0 0.0
0.1289999999996938 0.0 0.0
0.1299999999996909 0.0 0.0
0.130999999999688 0.0 0.0
0.1319999999996851 0.0 0.0
0.1329999999996822 0.0 0.0
0.1339999999996792 0.0 0.0
0.1349999999996764 0.0 0.0
0.1359999999996734 0.0 0.0
0.1369999999996705 0.0 0.0
0.1379999999996676 0.0 0.0
0.1389999999996647 0.0 0.0
0.1399999999996618 0.0 0.0
0.1409999999996588 0.0 0.0
0.1419999999996559 0.0 0.0
0.142999999999653 0.0 0.0
0.1439999999996501 0.0 0.0
0.1449999999996472 0.0 0.0
0.1459999999996442 0.0 0.0
0.1469999999996414 0.0 0.0
0.1479999999996384 0.0 0.0
0.1489999999996355 0.0 0.0
0.1499999999996326 0.0 0.0
0.1509999999996297 0.0 0.0
0.1519999999996268 0.0 0.0
0.1529999999996239 0.0 0.0
0.1539999999996209 0.0 0.0
0.154999999999618 0.0 0.0
0.1559999999996151 0.0 0.0
0.1569999999996122 0.0 0.0
0.1579999999996093 0.0 0.0
0.1589999999996064 0.0 0.0
0.1599999999996035 0.0 0.0
0.1609999999996005 0.0 0.0
0.1619999999995976 0.0 0.0
0.1629999999995947 0.0 0.0
0.1639999999995918 0.0 0.0
0.1649999999995889 0.0 0.0
0.165999999999586 0.0 0.0
0.1669999999995831 0.0 0.0
0.1679999999995801 0.0 0.0
0.1689999999995772 0.0 0.0
0.1699999999995743 0.0 0.0
0.1709999999995714 0.0 0.0
0.1719999999995685 0.0 0.0
0.1729999999995655 0.0 0.0
0.1739999999995626 0.0 0.0
0.1749999999995597 0.0 0.0
0.1759999999995568 0.0 0.0
0.1769999999995539 0.0 0.0
0.177999999999551 0.0 0.0
0.178999999999548 0.0 0.0
0.1799999999995451 0.0 0.0
0.1809999999995422 0.0 0.0
0.1819999999995393 0.0 0.0
0.1829999999995364 0.0 0.0
0.1839999999995335 0.0 0.0
0.1849999999995305 0.0 0.0
0.1859999999995277 0.0 0.0
0.1869999999995247 0.0 0.0
0.1879999999995218 0.0 0.0
0.1889999999995189 0.0 0.0
0.189999999999516 0.0 0.0
0.1909999999995131 0.0 0.0
0.1919999999995101 0.0 0.0
0.1929999999995072 0.0 0.0
0.1939999999995043 0.0 0.0
0.1949999999995014 0.0 0.0
0.1959999999994985 0.0 0.0
0.1969999999994956 0.0 0.0
0.1979999999994927 0.0 0.0
0.1989999999994897 0.0 0.0
0.1999999999994868 0.0 0.0
0.2009999999994839 0.0 0.0
0.201999999999481 0.0 0.0
0.2029999999994781 0.0 0.0
0.2039999999994752 0.0 0.0
0.2049999999994722 0.0 0.0
0.2059999999994693 0.0 0.0
0.2069999999994664 0.0 0.0
0.2079999999994635 0.0 0.0
0.2089999999994606 0.0 0.0
0.2099999999994577 0.0 0.0
0.2109999999994548 0.0 0.0
0.2119999999994518 0.0 0.0
0.2129999999994489 0.0 0.0
0.213999999999446 0.0 0.0
0.2149999999994431 0.0 0.0
0.2159999999994402 0.0 0.0
0.2169999999994373 0.0 0.0
0.2179999999994343 0.0 0.0
0.2189999999994314 0.0 0.0
0.2199999999994285 0.0 0.0
0.2209999999994256 0.0 0.0
0.2219999999994227 0.0 0.0
0.2229999999994198 0.0 0.0
0.2239999999994168 0.0 0.0
0.2249999999994139 0.0 0.0
0.225999999999411 0.0 0.0
0.2269999999994081 0.0 0.0
0.2279999999994052 0.0 0.0
0.2289999999994023 0.0 0.0
0.2299999999993994 0.0 0.0
0.2309999999993964 0.0 0.0
0.2319999999993935 0.0 0.0
0.2329999999993906 0.0 0.0
0.2339999999993877 0.0 0.0
0.2349999999993848 0.0 0.0
0.2359999999993818 0.0 0.0
0.236999999999379 0.0 0.0
0.237999999999376 0.0 0.0
0.2389999999993731 0.0 0.0
0.2399999999993702 0.0 0.0
0.2409999999993673 0.0 0.0
0.2419999999993644 0.0 0.0
0.2429999999993615 0.0 0.0
0.2439999999993585 0.0 0.0
0.2449999999993556 0.0 0.0
0.2459999999993527 0.0 0.0
0.246999999999351 0.0 0.0
0.2479999999993495 0.0 0.0
0.248999999999348 0.0 0.0
0.2499999999993464 0.0 0.0
0.2509999999993477 0.0 0.0
0.2519999999993489 0.0 0.0
0.2529999999993502 0.0 0.0
0.2539999999993516 0.0 0.0
0.2549999999993542 0.0 0.0
0.2559999999993569 0.0 0.0
0.2569999999993595 0.0 0.0
0.2579999999993621 0.0 0.0
0.2589999999993647 0.0 0.0
0.2599999999993673 0.0 0.0
0.26099999999937 0.0 0.0
0.2619999999993726 0.0 0.0
0.2629999999993753 0.0 0.0
0.2639999999993779 0.0 0.0
0.2649999999993806 0.0 0.0
0.2659999999993832 0.0 0.0
0.2669999999993858 0.0 0.0
0.2679999999993884 0.0 0.0
0.2689999999993911 0.0 0.0
0.2699999999993937 0.0 0.0
0.2709999999993963 0.0 0.0
0.271999999999399 0.0 0.0
0.2729999999994017 0.0 0.0
0.2739999999994043 0.0 0.0
0.2749999999994069 0.0 0.0
0.2759999999994096 0.0 0.0
0.2769999999994122 0.0 0.0
0.2779999999994148 0.0 0.0
0.2789999999994174 0.0 0.0
0.2799999999994201 0.0 0.0
0.2809999999994228 0.0 0.0
0.2819999999994254 0.0 0.0
0.282999999999428 0.0 0.0
0.2839999999994306 0.0 0.0
0.2849999999994333 0.0 0.0
0.2859999999994359 0.0 0.0
0.2869999999994385 0.0 0.0
0.2879999999994411 0.0 0.0
0.2889999999994439 0.0 0.0
0.2899999999994465 0.0 0.0
0.2909999999994491 0.0 0.0
0.2919999999994517 0.0 0.0
0.2929999999994544 0.0 0.0
0.293999999999457 0.0 0.0
0.2949999999994596 0.0 0.0
0.2959999999994622 0.0 0.0
0.2969999999994649 0.0 0.0
0.2979999999994676 0.0 0.0
0.2989999999994702 0.0 0.0
0.2999999999994728 0.0 0.0
0.3009999999994754 0.0 0.0
0.3019999999994781 0.0 0.0
0.3029999999994807 0.0 0.0
0.3039999999994834 0.0 0.0
0.304999999999486 0.0 0.0
0.3059999999994886 0.0 0.0
0.3069999999994913 0.0 0.0
0.3079999999994939 0.0 0.0
0.3089999999994965 0.0 0.0
0.3099999999994992 0.0 0.0
0.3109999999995018 0.0 0.0
0.3119999999995045 0.0 0.0
0.3129999999995071 0.0 0.0
0.3139999999995097 0.0 0.0
0.3149999999995123 0.0 0.0
0.315999999999515 0.0 0.0
0.3169999999995176 0.0 0.0
0.3179999999995203 0.0 0.0
0.3189999999995229 0.0 0.0
0.3199999999995256 0.0 0.0
0.3209999999995282 0.0 0.0
0.3219999999995308 0.0 0.0
0.3229999999995334 0.0 0.0
0.323999999999536 0.0 0.0
0.3249999999995387 0.0 0.0
0.3259999999995414 0.0 0.0
0.326999999999544 0.0 0.0
0.3279999999995466 0.0 0.0
0.3289999999995493 0.0 0.0
0.3299999999995519 0.0 0.0
0.3309999999995545 0.0 0.0
0.3319999999995571 0.0 0.0
0.3329999999995598 0.0 0.0
0.3339999999995625 0.0 0.0
0.3349999999995651 0.0 0.0
0.3359999999995677 0.0 0.0
0.3369999999995703 0.0 0.0
0.337999999999573 0.0 0.0
0.3389999999995756 0.0 0.0
0.3399999999995783 0.0 0.0
0.3409999999995809 0.0 0.0
0.3419999999995835 0.0 0.0
0.3429999999995862 0.0 0.0
0.3439999999995888 0.0 0.0
0.3449999999995914 0.0 0.0
0.345999999999594 0.0 0.0
0.3469999999995967 0.0 0.0
0.3479999999995994 0.0 0.0
0.348999999999602 0.0 0.0
0.3499999999996046 0.0 0.0
0.3509999999996072 0.0 0.0
0.3519999999996099 0.0 0.0
0.3529999999996125 0.0 0.0
0.3539999999996151 0.0 0.0
0.3549999999996178 0.0 0.0
0.3559999999996205 0.0 0.0
0.3569999999996231 0.0 0.0
0.3579999999996257 0.0 0.0
0.3589999999996283 0.0 0.0
0.359999999999631 0.0 0.0
0.3609999999996336 0.0 0.0
0.3619999999996362 0.0 0.0
[...]
POINT_DATA 7930
SCALARS Disp float 2
LOOKUP_TABLE default
0.0 0.0005612119897007937
0.0 0.1
0.0 0.1
0.0 0.0
3.9495684968775444e-17 0.0
-6.8667176226661664e-06 0.0005606924559694036
-1.3620861439673173e-05 0.0005594570864211956
-2.0474842151627538e-05 0.0005580999939878755
-2.7757388102872744e-05 0.0005553954590968746
-3.448280899079536e-05 0.0005506099933089173
-4.079501497686985e-05 0.0005454695942279592
-4.742737596053155e-05 0.0005416569997335643
-5.4615666122490525e-05 0.0005365812571925298
-6.174235497982144e-05 0.0005281693999034451
-6.817596089971863e-05 0.0005189992703267594
-7.470981004585905e-05 0.0005113852234017098
-8.230938250554942e-05 0.0005025028479146459
-8.935462923258135e-05 0.0004898087289782104
-9.542773941299851e-05 0.00047600218804215205
-0.00010184673861944554 0.000463905046248923
-0.00010884437989608673 0.00045073941667091746
-0.00011634103805030771 0.00043296982206761245
-0.00012256714365478514 0.00041297000909134164
-0.00012895688757062526 0.0003941069877199388
-0.00013643279015440832 0.000374296851014059
-0.0001444951463086203 0.0003468691115722849
-0.00015095700014533433 0.0003153815364427893
-0.00015676300891547283 0.0002833802345544714
-0.00016342960900228513 0.0002463081853395797
-0.00016850420555116855 0.0001964155454835426
-0.00016878482457591184 0.00012536171341073673
-0.0001561794937843833 0.0
-0.00013254503629977053 0.0
-0.00011870938695005016 0.0
-0.00010768019035404287 0.0
-9.962654428688157e-05 0.0
-9.271029319281017e-05 0.0
-8.692879031032819e-05 0.0
-8.19551140236814e-05 0.0
-7.746221426888974e-05 0.0
-7.344683096242197e-05 0.0
-6.986597257155049e-05 0.0
-6.659075287601907e-05 0.0
-6.361994378352795e-05 0.0
-6.087911372899956e-05 0.0
-5.835190949669987e-05 0.0
-5.6002698451376213e-05 0.0
-5.378531972461142e-05 0.0
-5.169682053527407e-05 0.0
-4.9741740107320275e-05 0.0
-4.789115282369087e-05 0.0
-4.614966378997604e-05 0.0
-4.449267913792786e-05 0.0
-4.291280916018092e-05 0.0
-4.139968404835148e-05 0.0
-3.995748332220414e-05 0.0
-3.8584151477003665e-05 0.0
-3.7271811750525254e-05 0.0
-3.598148630820775e-05 0.0
-3.4764281574824954e-05 0.0
-3.360015978606987e-05 0.0
-3.248468098698883e-05 0.0
-3.141024805419658e-05 0.0
-3.038010373879221e-05 0.0
-2.938822649577519e-05 0.0
-2.8428757424909196e-05 0.0
-2.7504626805203996e-05 0.0
-2.6612619983233428e-05 0.0
-2.5748619640824275e-05 0.0
-2.4914338326756058e-05 0.0
-2.4107935094690605e-05 0.0
-2.3324864522211166e-05 0.0
-2.2564722837492257e-05 0.0
-2.182847764547797e-05 0.0
-2.1114820014469353e-05 0.0
-2.0419901355753282e-05 0.0
-1.974471184109956e-05 0.0
-1.9088246934528717e-05 0.0
-1.8447895904465538e-05 0.0
-1.7825808447925517e-05 0.0
-1.7221354549545616e-05 0.0
-1.66334716732115e-05 0.0
-1.6061730971438283e-05 0.0
-1.5504437659880843e-05 0.0
-1.4962939950404406e-05 0.0
-1.4436287681374972e-05 0.0
-1.3923382927566187e-05 0.0
-1.3424175962767234e-05 0.0
-1.29389230101643e-05 0.0
-1.2465302418107614e-05 0.0
-1.2003793039106686e-05 0.0
-1.1554832630831195e-05 0.0
-1.1117532156311515e-05 0.0
-1.0691716452731646e-05 0.0
-1.0275973206436894e-05 0.0
-9.870705233036893e-06 0.0
-9.474967806956372e-06 0.0
-9.088234011198855e-06 0.0
-8.710368394907405e-06 0.0
-8.341470441407479e-06 0.0
-7.980991873787739e-06 0.0
-7.6278051220732605e-06 0.0
-7.282468772768347e-06 0.0
-6.944021804448837e-06 0.0
-6.61291030723452e-06 0.0
-6.288796665669186e-06 0.0
-5.9718803978843595e-06 0.0
-5.661870480174596e-06 0.0
-5.358715175821232e-06 0.0
-5.062336765760205e-06 0.0
-4.771487692368638e-06 0.0
-4.487952869766496e-06 0.0
-4.211972816353485e-06 0.0
-3.940180153772595e-06 0.0
-3.6757763770402237e-06 0.0
-3.418014312214084e-06 0.0
-3.1661964228905414e-06 0.0
-2.9208272490844794e-06 0.0
-2.6818490015179772e-06 0.0
-2.44910192068725e-06 0.0
-2.222766036331024e-06 0.0
-2.0028925920503465e-06 0.0
-1.7893481915563757e-06 0.0
-1.5828544976043243e-06 0.0
-1.3817769863626224e-06 0.0
-1.1861933647153122e-06 0.0
-9.968684840716335e-07 0.0
-8.141261030166719e-07 0.0
-6.369684629204185e-07 0.0
-4.6526542921072716e-07 0.0
-2.9971180616199877e-07 0.0
-1.4028193067765552e-07 0.0
1.4042236220078726e-08 0.0
1.6276401097903633e-07 0.0
3.0629172538053276e-07 0.0
4.441910494871699e-07 0.0
5.768452937205515e-07 0.0
7.040977703465209e-07 0.0
8.259736030578832e-07 0.0
9.433907302156242e-07 0.0
1.0560263356204828e-06 0.0
1.1633971616735959e-06 0.0
1.2660906263337315e-06 0.0
1.3641716127355451e-06 0.0
1.4576059874060452e-06 0.0
1.5463979513855071e-06 0.0
1.6306922676007608e-06 0.0
1.710478709016501e-06 0.0
1.78598343600582e-06 0.0
1.8572018670446497e-06 0.0
1.9238167440904397e-06 0.0
1.9861259038633565e-06 0.0
2.0446858407012696e-06 0.0
2.099262291238756e-06 0.0
2.1494433749516234e-06 0.0
2.195697741054268e-06 0.0
2.2378726398410725e-06 0.0
2.276202293118982e-06 0.0
2.3108826507523636e-06 0.0
2.3416412326626146e-06 0.0
2.3688770689130275e-06 0.0
2.391548877888105e-06 0.0
2.4117445813442244e-06 0.0
2.427983858452207e-06 0.0
2.4406234078679884e-06 0.0
2.450076758680611e-06 0.0
2.455716277625476e-06 0.0
2.45905145730474e-06 0.0
2.4588627680487047e-06 0.0
2.4554543018645947e-06 0.0
2.449220791793301e-06 0.0
2.440116664238384e-06 0.0
2.428397142940771e-06 0.0
2.414041675527132e-06 0.0
2.397128054555702e-06 0.0
2.3778868373647452e-06 0.0
2.3562157752843953e-06 0.0
2.3323986890078407e-06 0.0
2.3065852289740628e-06 0.0
2.2788160967499723e-06 0.0
2.2491448688030066e-06 0.0
2.2177356174080788e-06 0.0
2.1848106636934113e-06 0.0
2.1503727314301717e-06 0.0
2.1145298692183584e-06 0.0
2.0774943167098582e-06 0.0
2.039285004481969e-06 0.0
2.0000101969382695e-06 0.0
1.9598777278820402e-06 0.0
1.918978455882845e-06 0.0
1.8773485013239603e-06 0.0
1.8351308181399711e-06 0.0
1.7924045264951626e-06 0.0
1.7492739130230584e-06 0.0
1.7058645107739711e-06 0.0
1.662241343844251e-06 0.0
1.618491540232891e-06 0.0
1.5747058932737477e-06 0.0
1.530958149760968e-06 0.0
1.4873305931558763e-06 0.0
1.4438971834190724e-06 0.0
1.4007134402519926e-06 0.0
1.3578662487208895e-06 0.0
1.3153965592997856e-06 0.0
1.2733774908616737e-06 0.0
1.2318511336736636e-06 0.0
1.190847356179108e-06 0.0
1.1504515827203725e-06 0.0
1.110706415199977e-06 0.0
1.0716160667875792e-06 0.0
1.0332442088382617e-06 0.0
9.956133648267743e-07 0.0
9.587339469292438e-07 0.0
9.226339482700077e-07 0.0
8.873508942691702e-07 0.0
8.52910585183862e-07 0.0
8.192900786534597e-07 0.0
7.865207792839308e-07 0.0
7.546282060646433e-07 0.0
7.235702594356502e-07 0.0
6.934124594376467e-07 0.0
6.641168977927887e-07 0.0
6.357032220003389e-07 0.0
6.081740611892247e-07 0.0
5.815013787741419e-07 0.0
5.557086847463753e-07 0.0
5.307680424608098e-07 0.0
5.066619044444237e-07 0.0
4.833925074384109e-07 0.0
4.609440755583654e-07 0.0
4.393336081289338e-07 0.0
4.185117786026369e-07 0.0
3.984668777286731e-07 0.0
3.79189430580788e-07 0.0
3.6062969389588887e-07 0.0
3.428300563470055e-07 0.0
3.257669367653609e-07 0.0
3.093813554500969e-07 0.0
2.936867017019901e-07 0.0
2.786675652505648e-07 0.0
2.6427928973906494e-07 0.0
2.5051011751688866e-07 0.0
2.3735884860149962e-07 0.0
2.2479251884246118e-07 0.0
2.1278656809325754e-07 0.0
2.0133747402035118e-07 0.0
1.904262993842598e-07 0.0
1.8000375167089832e-07 0.0
1.7008358695722038e-07 0.0
1.6065233576929989e-07 0.0
1.5166123563777097e-07 0.0
1.4312660175148058e-07 0.0
1.350124381227239e-07 0.0
1.273034558091524e-07 0.0
1.19991702693859e-07 0.0
1.1304628344640852e-07 0.0
1.0645937127050739e-07 0.0
1.002289310858677e-07 0.0
9.431305775885711e-08 0.0
8.870774661447555e-08 0.0
8.340204520292483e-08 0.0
7.838809137644246e-08 0.0
7.364944716996904e-08 0.0
6.917242773063961e-08 0.0
6.494167656530065e-08 0.0
6.094796140837644e-08 0.0
5.717862089340941e-08 0.0
5.362685702304832e-08 0.0
5.027585192723408e-08 0.0
4.7114158625994675e-08 0.0
4.41363989515204e-08 0.0
4.1333504388307285e-08 0.0
3.869205945285136e-08 0.0
3.6223635624636824e-08 0.0
3.387297528046457e-08 0.0
3.1677230395070295e-08 0.0
2.9611250132948845e-08 0.0
2.7672384860569888e-08 0.0
2.5851431586915246e-08 0.0
2.4141031234050666e-08 0.0
2.253823523860326e-08 0.0
2.1035207492258593e-08 0.0
1.9624783374105388e-08 0.0
1.8303744064989778e-08 0.0
1.7063397686019527e-08 0.0
1.5904693853376424e-08 0.0
1.4822419472122695e-08 0.0
1.3807055928543795e-08 0.0
1.2857585559758843e-08 0.0
1.1968893971348426e-08 0.0
1.1138193160202445e-08 0.0
1.0363155784043484e-08 0.0
9.638597859812985e-09 0.0
8.962442935702503e-09 0.0
8.33139006690788e-09 0.0
7.741753944491593e-09 0.0
7.190584188317188e-09 0.0
6.678730671654796e-09 0.0
6.201077984231442e-09 0.0
5.75587658736639e-09 0.0
5.34093482690227e-09 0.0
4.954553043719645e-09 0.0
4.594923578533182e-09 0.0
4.260164372701875e-09 0.0
3.948873430259666e-09 0.0
3.6590465460855545e-09 0.0
3.3898456724057094e-09 0.0
3.1395835461491346e-09 0.0
2.9070701859213885e-09 0.0
2.6911927064928766e-09 0.0
2.4906890145583274e-09 0.0
2.3044729314336682e-09 0.0
2.1316013314444462e-09 0.0
1.9709552923428562e-09 0.0
1.822115054540313e-09 0.0
1.6842508509482971e-09 0.0
1.5563610159375611e-09 0.0
1.4377150472361722e-09 0.0
1.3277952786990498e-09 0.0
1.2259010637244509e-09 0.0
1.1315278543363972e-09 0.0
1.044391167833149e-09 0.0
9.638260241497385e-10 0.0
8.89257679193736e-10 0.0
8.200010511530267e-10 0.0
7.560097244988915e-10 0.0
6.969440248622779e-10 0.0
6.421467331628638e-10 0.0
5.91559692042668e-10 0.0
5.44960364149322e-10 0.0
5.017519366372286e-10 0.0
4.619930949161304e-10 0.0
4.25269201745283e-10 0.0
3.9137180057308533e-10 0.0
3.601864828146583e-10 0.0
3.3135635123426153e-10 0.0
3.0476770912748514e-10 0.0
2.8024870476442854e-10 0.0
2.5766719912250043e-10 0.0
2.3684500768182356e-10 0.0
2.1765206380583902e-10 0.0
1.9996023744622473e-10 0.0
1.836494799982526e-10 0.0
1.68656385748819e-10 0.0
1.5485279220274719e-10 0.0
1.4214996091136397e-10 0.0
1.3045102739591387e-10 0.0
1.1968800393249088e-10 0.0
1.097990303350966e-10 0.0
1.0074558893503787e-10 0.0
9.237981781895483e-11 0.0
8.471299927952311e-11 0.0
7.765156692939427e-11 0.0
7.114303808028889e-11 0.0
6.519015502024057e-11 0.0
5.97472941996926e-11 0.0
5.472245555798037e-11 0.0
5.011919149807653e-11 0.0
4.5886188920110806e-11 0.0
4.200532038223674e-11 0.0
3.846495264665653e-11 0.0
3.519731025254081e-11 0.0
3.2205832378054293e-11 0.0
2.946168248666051e-11 0.0
2.693734161449947e-11 0.0
2.463138100854451e-11 0.0
2.252293668008603e-11 0.0
2.058651460740139e-11 0.0
1.8814516087824984e-11 0.0
1.7192390749660587e-11 0.0
1.570646718770345e-11 0.0
1.4347815105840827e-11 0.0
1.3104803106857977e-11 0.0
1.1966651092078359e-11 0.0
1.0925378799843772e-11 0.0
9.971495018338427e-12 0.0
9.100450508397198e-12 0.0
8.304728568805533e-12 0.0
7.577147234121479e-12 0.0
6.9125119729605825e-12 0.0
6.304970956574455e-12 0.0
5.750978008503829e-12 0.0
5.244562190004052e-12 0.0
4.779415806674205e-12 0.0
4.356004565805587e-12 0.0
3.971573379897459e-12 0.0
3.6188660544468455e-12 0.0
3.2954543129657036e-12 0.0
3.0021235861953243e-12 0.0
2.7350489915304747e-12 0.0
2.4906814955560405e-12 0.0
2.267557415155681e-12 0.0
2.0642360568285798e-12 0.0
1.87814360404822e-12 0.0
1.7091167990740493e-12 0.0
1.5557313328430612e-12 0.0
1.4152766301094543e-12 0.0
1.2872270591334996e-12 0.0
1.1707149888077643e-12 0.0
1.063979843096179e-12 0.0
9.673534808817448e-13 0.0
8.794235667643101e-13 0.0
7.992381356138649e-13 0.0
7.264654878302993e-13 0.0
6.602905005572246e-13 0.0
5.998378213161871e-13 0.0
5.44825512975057e-13 0.0
4.94819882553918e-13 0.0
4.493865093379646e-13 0.0
4.0804638911640936e-13 0.0
3.704509493766763e-13 0.0
3.3627765128364947e-13 0.0
3.0524102746850517e-13 0.0
2.7701900645654e-13 0.0
2.5137951985169967e-13 0.0
2.280593512672084e-13 0.0
2.0684202984204867e-13 0.0
1.8759435265693573e-13 0.0
1.7012224429865048e-13 0.0
1.542542811469155e-13 0.0
1.3986261668780674e-13 0.0
1.2679997501891664e-13 0.0
1.1492433639240179e-13 0.0
1.0415699761881627e-13 0.0
9.437294152948113e-14 0.0
8.54983356101117e-14 0.0
7.746021315511874e-14 0.0
7.016899594296367e-14 0.0
6.352491730280021e-14 0.0
5.75309710292778e-14 0.0
5.209420258430857e-14 0.0
4.7173667397888546e-14 0.0
4.270352718132698e-14 0.0
3.8651021611041336e-14 0.0
3.498000618849326e-14 0.0
3.165329627628844e-14 0.0
2.8636980187485024e-14 0.0
2.5901322858466916e-14 0.0
2.3425059308658607e-14 0.0
2.1186458629575026e-14 0.0
1.9159030622371977e-14 0.0
1.7323684515860236e-14 0.0
1.5664121036283603e-14 0.0
1.4162493034512427e-14 0.0
1.2796921237132055e-14 0.0
1.1565903896238095e-14 0.0
1.04533800218808e-14 0.0
9.447729730288881e-15 0.0
8.536780169872378e-15 0.0
7.714386250558105e-15 0.0
6.966519365036439e-15 0.0
6.293896846011251e-15 0.0
5.685346159349359e-15 0.0
5.134738424064323e-15 0.0
4.637792002685975e-15 0.0
4.188366584990676e-15 0.0
3.7816179401352175e-15 0.0
3.4141626312972697e-15 0.0
3.0820923557388877e-15 0.0
2.7820793793215395e-15 0.0
2.5123659855542625e-15 0.0
2.267175213018636e-15 0.0
2.0464712649287225e-15 0.0
1.8470685015441334e-15 0.0
1.6672364605453022e-15 0.0
1.5051784224395553e-15 0.0
1.358892129716471e-15 0.0
1.2265590212438038e-15 0.0
1.1067350120578713e-15 0.0
9.989826456157085e-16 0.0
9.02357400686773e-16 0.0
8.15316838228578e-16 0.0
7.361344454567185e-16 0.0
6.648855903264989e-16 0.0
6.005166977162065e-16 0.0
5.425177576150466e-16 0.0
4.901877511555428e-16 0.0
4.430749824004219e-16 0.0
4.006070875834375e-16 0.0
3.621804748309562e-16 0.0
3.27674726991434e-16 0.0
2.9660883164796516e-16 0.0
2.6867692801626343e-16 0.0
2.4342466188750174e-16 0.0
2.2063821902006322e-16 0.0
2.0007695745331816e-16 0.0
1.8157852321104723e-16 0.0
1.6501553390432215e-16 0.0
1.4996009892322733e-16 0.0
1.3642365567187233e-16 0.0
1.242393040444033e-16 0.0
1.1324323811331485e-16 0.0
1.033985704509914e-16 0.0
9.447254785540444e-17 0.0
8.642299332415094e-17 0.0
7.920041464447436e-17 0.0
7.270057029831119e-17 0.0
6.683043589719625e-17 0.0
6.15630695468582e-17 0.0
5.683360792837746e-17 0.0
5.259078397537272e-17 0.0
4.8770559393246297e-17 0.0
4.532115649993465e-17 0.0
4.225069201664803e-17 0.0
3.6935830911970274e-17 0.0
3.4470810217307826e-17 0.0
3.211511130603998e-17 0.0
2.988864596139452e-17 0.0
2.7822598394095205e-17 0.0
2.5914142478606765e-17 0.0
2.4171075549668243e-17 0.0
2.2601542952239353e-17 0.0
2.1186323527966262e-17 0.0
1.9947253863163293e-17 0.0
1.8871553100091427e-17 0.0
1.793533966480168e-17 0.0
1.7152452412290686e-17 0.0
1.6489695444326857e-17 0.0
1.5955345743727385e-17 0.0
1.5550226574365384e-17 0.0
1.5302615168469176e-17 0.0
1.5181790868627983e-17 0.0
1.5211778108740244e-17 0.0
1.5329154199927266e-17 0.0
1.541509255231027e-17 0.0
1.5229629656902552e-17 0.0
1.4937290737276092e-17 0.0
1.4932821386374234e-17 0.0
1.543004079937697e-17 0.0
1.5939890933567468e-17 0.0
1.5529300561059104e-17 0.0
1.4551541673581926e-17 0.0
1.4275790624580755e-17 0.0
1.3506870010489272e-17 0.0
1.273792192411787e-17 0.0
1.2898718744256267e-17 0.0
1.3992993500644646e-17 0.0
1.649168150075583e-17 0.0
1.669332180351106e-17 0.0
1.6412624154582856e-17 0.0
1.8793317441784173e-17 0.0
2.2149669793839006e-17 0.0
2.5562303179353873e-17 0.0
2.4469015942545636e-17 0.0
2.2903534068576822e-17 0.0
1.395850580862473e-17 0.0
1.6708035611922317e-17 0.0
1.4168860481532877e-17 0.0
1.7303546346198855e-17 0.0
4.581122893104382e-17 0.0
4.28306423356526e-17 0.0
3.3097146172868614e-17 0.0
3.051411950955949e-17 0.0
4.121510683320186e-17 0.0
2.2037033740234775e-17 0.0
3.448704925119775e-17 0.0
3.952464511637717e-17 0.0
4.83500518421039e-17 0.0
2.166584791434265e-17 0.0
4.784636113820921e-17 0.0
3.170218481460038e-17 0.0
4.5218241262953707e-17 0.0
9.777271472161628e-17 0.0
6.134252094446443e-17 0.0
3.586422820946847e-17 0.0
6.038822764171804e-17 0.0
5.694335255143716e-17 0.0
2.684776899294673e-18 0.0
8.393770513419522e-17 0.0
3.937663833290522e-17 0.0
1.9898825535445027e-17 0.0
4.4818289100479296e-17 0.0
3.856368037045356e-18 0.0
5.89311378123953e-17 0.0
2.9060500469605353e-18 0.0
1.4236657173911084e-17 0.0
6.930216562287051e-17 0.0
-1.7260283212348162e-17 0.0
6.06025564183272e-17 0.0
3.572139217340245e-17 0.0
-4.516806795744546e-17 0.0
2.641948667664421e-17 0.0
-1.2552581257076253e-17 0.0
0.0 0.009234165287257453
0.0 0.022109785930449356
0.0 0.04006285207153545
0.0 0.06509563926324187
-3.682761369797621e-17 0.1
-4.739129790093869e-17 0.1
3.2806240409363867e-16 0.1
-4.3002676689803493e-16 0.1
0.0 0.09234095951662633
0.0 0.08526779443703018
0.0 0.07873568783499062
0.0 0.07270325358170115
0.0 0.06713226878993854
0.0 0.06198743331091491
0.0 0.057236152337947356
0.0 0.05284831692952033
0.0 0.04879612844994125
0.0 0.04505391065784607
0.0 0.04159795282712724
0.0 0.03840635724257038
0.0 0.03545890171822265
0.0 0.03273691087332597
0.0 0.030223137736027358
0.0 0.027901654838202804
0.0 0.02575775300196
0.0 0.023777848352115213
0.0 0.021949395807803033
0.0 0.020260810255894556
0.0 0.01870139222365326
0.0 0.017261261595034445
0.0 0.015931293336680457
0.0 0.014703060372940412
0.0 0.013568780782904449
0.0 0.012521267482861392
0.0 0.011553883413523616
0.0 0.010660499143842954
0.0 0.00983545392283127
0.0 0.009073520329637793
0.0 0.008369870608788937
0.0 0.0077200463033814
0.0 0.007119930012359991
0.0 0.006565719473503434
0.0 0.006053903138567392
0.0 0.005581237991563772
0.0 0.005144729226039161
0.0 0.004741611057488155
0.0 0.004369329279124331
0.0 0.004025525044284109
0.0 0.0037080200109065216
0.0 0.0034148024737457624
0.0 0.0031440158939953443
0.0 0.002893956725277702
0.0 0.002663106329891795
0.0 0.0024502336912707793
0.0 0.002254420502360404
0.0 0.002075018919988922
0.0 0.0019108577833646307
0.0 0.0017606505602393225
0.0 0.0016231443248144607
0.0 0.0014975903445634243
0.0 0.0013834689766205426
0.0 0.0012802423349788598
0.0 0.0011868635898559228
0.0 0.001102193370619537
0.0 0.0010255938490928093
0.0 0.0009568530993840436
0.0 0.000895700569766416
0.0 0.0008415210303576769
0.0 0.0007936341314659089
0.0 0.0007518112536768149
0.0 0.0007157444738977533
0.0 0.0006848035517445469
0.0 0.000659062828340362
0.0 0.0006371941248649683
0.0 0.0006196501388742473
0.0 0.0006059924839905233
0.0 0.0005956004249395567
0.0 0.0005880974800919156
0.0 0.0005825827282931082
0.0 0.0005789865664260116
0.0 0.0005766091275984511
0.0 0.0005751219162955564
0.0 0.0005740643953095751
0.0 0.0005733083599152517
0.0 0.0005725595857816803
0.0 0.0005717027732231985
0.0 0.0005706459219229164
0.0 0.0005691225991549154
0.0 0.0005673969280222028
0.0 0.0005654193315759098
0.0 0.0005633744060475431
-1.8035645297859806e-17 0.00492724513266189
1.2106156263205358e-13 0.002773874597124107
1.2883371464575882e-06 0.0015370146929490954
1.900787136485735e-05 0.000915590741224654
4.6521253363363407e-10 0.0014042043374227833
1.928017987971201e-17 0.002259784942604702
3.226717873422495e-05 0.0005571337572472145
4.869373434803736e-15 0.0012867734734110395
3.6186892527430014e-06 0.0007835706533277066
1.1297373406044851e-07 0.0007701475655619313
8.060496615769055e-10 0.0007097592066037045
2.0811795241885636e-12 0.0006767768966382819
5.1961442085920555e-18 0.014973736461408958
2.5376545241444217e-15 0.0006657294860768411
8.664659471156915e-06 0.0004459899463759842
4.941345772097325e-06 0.00043781406905521957
9.621742679618156e-18 0.0011704180815624316
4.544510308858429e-05 0.00043528238731705776
2.519540156370574e-06 0.00039182758517130754
5.702234517645793e-07 0.00042331094036499983
6.14148867340141e-08 0.00040050038180151546
4.258139136529584e-09 0.00037727785451950987
2.2270720519306663e-10 0.00037799229786792196
1.698861265139655e-17 0.0006414990043901085
1.0418330445608473e-11 0.00035247015086130513
2.5011351114371706e-13 0.00039119165166999763
-5.687796893405192e-17 0.04847397115433124
5.265871377481251e-06 0.00027659473641866874
-2.788964956696065e-06 0.0002447143846049166
9.5869487744857e-15 0.00033400753026480997
1.7107347580343238e-16 0.00039557321739701486
-1.23397298338293e-17 0.007989497114757157
1.4174624851024842e-17 0.003711834662427624
-1.6045601658614311e-06 0.00022054868640643995
1.5897303289145585e-06 0.00022920682667669354
2.7310906386695708e-06 0.0002210810325991117
2.6961013748322726e-06 0.0002006600977070344