# vtk DataFile Version 3.0
Some data
ASCII
DATASET UNSTRUCTURED_GRID
POINTS 7930 float
0.0 0.0 0.0
0.0 10.0 0.0
10.0 10.0 0.0
10.0 0.0 0.0
0.5 0.0 0.0
0.0009999999999981016 0.0 0.0
0.001999999999996203 0.0 0.0
0.002999999999994305 0.0 0.0
0.003999999999992409 0.0 0.0
0.004999999999990531 0.0 0.0
0.005999999999988653 0.0 0.0
0.006999999999986775 0.0 0.0
0.007999999999984898 0.0 0.0
0.008999999999983018 0.0 0.0
0.009999999999981142 0.0 0.0
0.01099999999997926 0.0 0.0
0.01199999999997736 0.0 0.0
0.0129999999999754 0.0 0.0
0.01399999999997343 0.0 0.0
0.01499999999997147 0.0 0.0
0.01599999999996944 0.0 0.0
0.0169999999999673 0.0 0.0
0.01799999999996516 0.0 0.0
0.01899999999996302 0.0 0.0
0.01999999999996084 0.0 0.0
0.02099999999995862 0.0 0.0
0.02199999999995639 0.0 0.0
0.02299999999995417 0.0 0.0
0.02399999999995195 0.0 0.0
0.02499999999994972 0.0 0.0
0.0259999999999475 0.0 0.0
0.02699999999994527 0.0 0.0
0.02799999999994315 0.0 0.0
0.0289999999999411 0.0 0.0
0.02999999999993905 0.0 0.0
0.030999999999937 0.0 0.0
0.03199999999993521 0.0 0.0
0.0329999999999335 0.0 0.0
0.0339999999999318 0.0 0.0
0.03499999999993009 0.0 0.0
0.03599999999992853 0.0 0.0
0.036999999999927 0.0 0.0
0.03799999999992547 0.0 0.0
0.03899999999992394 0.0 0.0
0.03999999999992241 0.0 0.0
0.04099999999992088 0.0 0.0
0.04199999999991934 0.0 0.0
0.04299999999991782 0.0 0.0
0.04399999999991629 0.0 0.0
0.04499999999991475 0.0 0.0
0.04599999999991322 0.0 0.0
0.0469999999999117 0.0 0.0
0.04799999999991016 0.0 0.0
0.04899999999990863 0.0 0.0
0.0499999999999071 0.0 0.0
0.05099999999990557 0.0 0.0
0.05199999999990404 0.0 0.0
0.05299999999990251 0.0 0.0
0.05399999999990097 0.0 0.0
0.05499999999989943 0.0 0.0
0.05599999999989791 0.0 0.0
0.05699999999989638 0.0 0.0
0.05799999999989484 0.0 0.0
0.05899999999989317 0.0 0.0
0.05999999999989129 0.0 0.0
0.06099999999988941 0.0 0.0
0.06199999999988753 0.0 0.0
0.06299999999988531 0.0 0.0
0.06399999999988273 0.0 0.0
0.06499999999988015 0.0 0.0
0.06599999999987759 0.0 0.0
0.0669999999998748 0.0 0.0
0.06799999999987189 0.0 0.0
0.06899999999986897 0.0 0.0
0.06999999999986604 0.0 0.0
0.07099999999986313 0.0 0.0
0.0719999999998602 0.0 0.0
0.07299999999985729 0.0 0.0
0.07399999999985438 0.0 0.0
0.07499999999985145 0.0 0.0
0.07599999999984854 0.0 0.0
0.07699999999984562 0.0 0.0
0.0779999999998427 0.0 0.0
0.07899999999983978 0.0 0.0
0.07999999999983685 0.0 0.0
0.08099999999983394 0.0 0.0
0.08199999999983103 0.0 0.0
0.0829999999998281 0.0 0.0
0.08399999999982519 0.0 0.0
0.08499999999982226 0.0 0.0
0.08599999999981935 0.0 0.0
0.08699999999981643 0.0 0.0
0.0879999999998135 0.0 0.0
0.08899999999981059 0.0 0.0
0.08999999999980766 0.0 0.0
0.09099999999980475 0.0 0.0
0.09199999999980184 0.0 0.0
0.09299999999979891 0.0 0.0
0.093999999999796 0.0 0.0
0.09499999999979307 0.0 0.0
0.09599999999979016 0.0 0.0
0.09699999999978724 0.0 0.0
0.09799999999978432 0.0 0.0
0.0989999999997814 0.0 0.0
0.09999999999977847 0.0 0.0
0.1009999999997756 0.0 0.0
0.1019999999997726 0.0 0.0
0.1029999999997697 0.0 0.0
0.1039999999997668 0.0 0.0
0.1049999999997639 0.0 0.0
0.105999999999761 0.0 0.0
0.106999999999758 0.0 0.0
0.1079999999997551 0.0 0.0
0.1089999999997522 0.0 0.0
0.1099999999997493 0.0 0.0
0.1109999999997464 0.0 0.0
0.1119999999997434 0.0 0.0
0.1129999999997405 0.0 0.0
0.1139999999997376 0.0 0.0
0.1149999999997347 0.0 0.0
0.1159999999997318 0.0 0.0
0.1169999999997288 0.0 0.0
0.1179999999997259 0.0 0.0
0.118999999999723 0.0 0.0
0.1199999999997201 0.0 0.0
0.1209999999997172 0.0 0.0
0.1219999999997143 0.0 0.0
0.1229999999997113 0.0 0.0
0.1239999999997084 0.0 0.0
0.1249999999997055 0.0 0.0
0.1259999999997026 0.0 0.0
0.1269999999996997 0.0 0.0
0.1279999999996967 0.0 0.0
0.1289999999996938 0.0 0.0
0.1299999999996909 0.0 0.0
0.130999999999688 0.0 0.0
0.1319999999996851 0.0 0.0
0.1329999999996822 0.0 0.0
0.1339999999996792 0.0 0.0
0.1349999999996764 0.0 0.0
0.1359999999996734 0.0 0.0
0.1369999999996705 0.0 0.0
0.1379999999996676 0.0 0.0
0.1389999999996647 0.0 0.0
0.1399999999996618 0.0 0.0
0.1409999999996588 0.0 0.0
0.1419999999996559 0.0 0.0
0.142999999999653 0.0 0.0
0.1439999999996501 0.0 0.0
0.1449999999996472 0.0 0.0
0.1459999999996442 0.0 0.0
0.1469999999996414 0.0 0.0
0.1479999999996384 0.0 0.0
0.1489999999996355 0.0 0.0
0.1499999999996326 0.0 0.0
0.1509999999996297 0.0 0.0
0.1519999999996268 0.0 0.0
0.1529999999996239 0.0 0.0
0.1539999999996209 0.0 0.0
0.154999999999618 0.0 0.0
0.1559999999996151 0.0 0.0
0.1569999999996122 0.0 0.0
0.1579999999996093 0.0 0.0
0.1589999999996064 0.0 0.0
0.1599999999996035 0.0 0.0
0.1609999999996005 0.0 0.0
0.1619999999995976 0.0 0.0
0.1629999999995947 0.0 0.0
0.1639999999995918 0.0 0.0
0.1649999999995889 0.0 0.0
0.165999999999586 0.0 0.0
0.1669999999995831 0.0 0.0
0.1679999999995801 0.0 0.0
0.1689999999995772 0.0 0.0
0.1699999999995743 0.0 0.0
0.1709999999995714 0.0 0.0
0.1719999999995685 0.0 0.0
0.1729999999995655 0.0 0.0
0.1739999999995626 0.0 0.0
0.1749999999995597 0.0 0.0
0.1759999999995568 0.0 0.0
0.1769999999995539 0.0 0.0
0.177999999999551 0.0 0.0
0.178999999999548 0.0 0.0
0.1799999999995451 0.0 0.0
0.1809999999995422 0.0 0.0
0.1819999999995393 0.0 0.0
0.1829999999995364 0.0 0.0
0.1839999999995335 0.0 0.0
0.1849999999995305 0.0 0.0
0.1859999999995277 0.0 0.0
0.1869999999995247 0.0 0.0
0.1879999999995218 0.0 0.0
0.1889999999995189 0.0 0.0
0.189999999999516 0.0 0.0
0.1909999999995131 0.0 0.0
0.1919999999995101 0.0 0.0
0.1929999999995072 0.0 0.0
0.1939999999995043 0.0 0.0
0.1949999999995014 0.0 0.0
0.1959999999994985 0.0 0.0
0.1969999999994956 0.0 0.0
0.1979999999994927 0.0 0.0
0.1989999999994897 0.0 0.0
0.1999999999994868 0.0 0.0
0.2009999999994839 0.0 0.0
0.201999999999481 0.0 0.0
0.2029999999994781 0.0 0.0
0.2039999999994752 0.0 0.0
0.2049999999994722 0.0 0.0
0.2059999999994693 0.0 0.0
0.2069999999994664 0.0 0.0
0.2079999999994635 0.0 0.0
0.2089999999994606 0.0 0.0
0.2099999999994577 0.0 0.0
0.2109999999994548 0.0 0.0
0.2119999999994518 0.0 0.0
0.2129999999994489 0.0 0.0
0.213999999999446 0.0 0.0
0.2149999999994431 0.0 0.0
0.2159999999994402 0.0 0.0
0.2169999999994373 0.0 0.0
0.2179999999994343 0.0 0.0
0.2189999999994314 0.0 0.0
0.2199999999994285 0.0 0.0
0.2209999999994256 0.0 0.0
0.2219999999994227 0.0 0.0
0.2229999999994198 0.0 0.0
0.2239999999994168 0.0 0.0
0.2249999999994139 0.0 0.0
0.225999999999411 0.0 0.0
0.2269999999994081 0.0 0.0
0.2279999999994052 0.0 0.0
0.2289999999994023 0.0 0.0
0.2299999999993994 0.0 0.0
0.2309999999993964 0.0 0.0
0.2319999999993935 0.0 0.0
0.2329999999993906 0.0 0.0
0.2339999999993877 0.0 0.0
0.2349999999993848 0.0 0.0
0.2359999999993818 0.0 0.0
0.236999999999379 0.0 0.0
0.237999999999376 0.0 0.0
0.2389999999993731 0.0 0.0
0.2399999999993702 0.0 0.0
0.2409999999993673 0.0 0.0
0.2419999999993644 0.0 0.0
0.2429999999993615 0.0 0.0
0.2439999999993585 0.0 0.0
0.2449999999993556 0.0 0.0
0.2459999999993527 0.0 0.0
0.246999999999351 0.0 0.0
0.2479999999993495 0.0 0.0
0.248999999999348 0.0 0.0
0.2499999999993464 0.0 0.0
0.2509999999993477 0.0 0.0
0.2519999999993489 0.0 0.0
0.2529999999993502 0.0 0.0
0.2539999999993516 0.0 0.0
0.2549999999993542 0.0 0.0
0.2559999999993569 0.0 0.0
0.2569999999993595 0.0 0.0
0.2579999999993621 0.0 0.0
0.2589999999993647 0.0 0.0
0.2599999999993673 0.0 0.0
0.26099999999937 0.0 0.0
0.2619999999993726 0.0 0.0
0.2629999999993753 0.0 0.0
0.2639999999993779 0.0 0.0
0.2649999999993806 0.0 0.0
0.2659999999993832 0.0 0.0
0.2669999999993858 0.0 0.0
0.2679999999993884 0.0 0.0
0.2689999999993911 0.0 0.0
0.2699999999993937 0.0 0.0
0.2709999999993963 0.0 0.0
0.271999999999399 0.0 0.0
0.2729999999994017 0.0 0.0
0.2739999999994043 0.0 0.0
0.2749999999994069 0.0 0.0
0.2759999999994096 0.0 0.0
0.2769999999994122 0.0 0.0
0.2779999999994148 0.0 0.0
0.2789999999994174 0.0 0.0
0.2799999999994201 0.0 0.0
0.2809999999994228 0.0 0.0
0.2819999999994254 0.0 0.0
0.282999999999428 0.0 0.0
0.2839999999994306 0.0 0.0
0.2849999999994333 0.0 0.0
0.2859999999994359 0.0 0.0
0.2869999999994385 0.0 0.0
0.2879999999994411 0.0 0.0
0.2889999999994439 0.0 0.0
0.2899999999994465 0.0 0.0
0.2909999999994491 0.0 0.0
0.2919999999994517 0.0 0.0
0.2929999999994544 0.0 0.0
0.293999999999457 0.0 0.0
0.2949999999994596 0.0 0.0
0.2959999999994622 0.0 0.0
0.2969999999994649 0.0 0.0
0.2979999999994676 0.0 0.0
0.2989999999994702 0.0 0.0
0.2999999999994728 0.0 0.0
0.3009999999994754 0.0 0.0
0.3019999999994781 0.0 0.0
0.3029999999994807 0.0 0.0
0.3039999999994834 0.0 0.0
0.304999999999486 0.0 0.0
0.3059999999994886 0.0 0.0
0.3069999999994913 0.0 0.0
0.3079999999994939 0.0 0.0
0.3089999999994965 0.0 0.0
0.3099999999994992 0.0 0.0
0.3109999999995018 0.0 0.0
0.3119999999995045 0.0 0.0
0.3129999999995071 0.0 0.0
0.3139999999995097 0.0 0.0
0.3149999999995123 0.0 0.0
0.315999999999515 0.0 0.0
0.3169999999995176 0.0 0.0
0.3179999999995203 0.0 0.0
0.3189999999995229 0.0 0.0
0.3199999999995256 0.0 0.0
0.3209999999995282 0.0 0.0
0.3219999999995308 0.0 0.0
0.3229999999995334 0.0 0.0
0.323999999999536 0.0 0.0
0.3249999999995387 0.0 0.0
0.3259999999995414 0.0 0.0
0.326999999999544 0.0 0.0
0.3279999999995466 0.0 0.0
0.3289999999995493 0.0 0.0
0.3299999999995519 0.0 0.0
0.3309999999995545 0.0 0.0
0.3319999999995571 0.0 0.0
0.3329999999995598 0.0 0.0
0.3339999999995625 0.0 0.0
0.3349999999995651 0.0 0.0
0.3359999999995677 0.0 0.0
0.3369999999995703 0.0 0.0
0.337999999999573 0.0 0.0
0.3389999999995756 0.0 0.0
0.3399999999995783 0.0 0.0
0.3409999999995809 0.0 0.0
0.3419999999995835 0.0 0.0
0.3429999999995862 0.0 0.0
0.3439999999995888 0.0 0.0
0.3449999999995914 0.0 0.0
0.345999999999594 0.0 0.0
0.3469999999995967 0.0 0.0
0.3479999999995994 0.0 0.0
0.348999999999602 0.0 0.0
0.3499999999996046 0.0 0.0
0.3509999999996072 0.0 0.0
0.3519999999996099 0.0 0.0
0.3529999999996125 0.0 0.0
0.3539999999996151 0.0 0.0
0.3549999999996178 0.0 0.0
0.3559999999996205 0.0 0.0
0.3569999999996231 0.0 0.0
0.3579999999996257 0.0 0.0
0.3589999999996283 0.0 0.0
0.359999999999631 0.0 0.0
0.3609999999996336 0.0 0.0
0.3619999999996362 0.0 0.0
[...]
POINT_DATA 7930
SCALARS Disp float 2
LOOKUP_TABLE default
0.0 0.001486218800001495
0.0 0.1
0.0 0.1
0.0 0.0
4.985188648966197e-06 0.0
-6.826020726260992e-06 0.0014859671535089852
-1.3600102756454098e-05 0.0014854997687817411
-2.0412655085238005e-05 0.0014851005765321491
-2.7295476357046956e-05 0.0014839882921715074
-3.391505006087484e-05 0.0014821979164109146
-4.0692051378587775e-05 0.0014810449512711638
-4.797998782922575e-05 0.0014799869524797927
-5.507480461334589e-05 0.0014771956381044351
-6.155596808973796e-05 0.001473365111647535
-6.788735259486458e-05 0.001470750838305083
-7.502280460775625e-05 0.0014693823726802484
-8.2608026074996e-05 0.001465632257497818
-8.906835653525429e-05 0.0014599702327992888
-9.530230884518238e-05 0.0014558808577735788
-0.00010244835581777194 0.001453402212188653
-0.00010976646177420184 0.0014487131289607357
-0.00011638606006051379 0.0014417793823755893
-0.00012240078717196915 0.0014364633215884273
-0.00012965495393861982 0.0014330164457149793
-0.0001374151746434558 0.0014272555069447905
-0.00014418150786052063 0.0014180951463624034
-0.00015005477169344664 0.001411071571009001
-0.00015703550213049628 0.0014066283277632315
-0.00016488473119255148 0.0013995099459379115
-0.00017154516892929451 0.0013886451167364736
-0.00017731355554737242 0.0013800242158538462
-0.00018421890031372515 0.00137450382880709
-0.00019217945639665146 0.001366286830643036
-0.00019891539893460123 0.0013540302713712727
-0.00020464246611423783 0.0013434749426536887
-0.0002113324546527487 0.0013363378906887905
-0.0002191391731277123 0.0013267479974919509
-0.00022590929311079602 0.001312700177442407
-0.00023176499549985285 0.0013001129147700557
-0.00023827235006968321 0.0012917243015189886
-0.00024633725262013554 0.001281028458427214
-0.0002533051764538462 0.0012651541471534892
-0.00025898749842022357 0.001250403808391478
-0.00026561366983612883 0.001240137644862178
-0.0002737321328471466 0.0012275764440897485
-0.00028079693437227236 0.0012092487260882113
-0.00028652381603144837 0.0011918897081932727
-0.0002926734167407306 0.0011793934280122595
-0.00030074510112521654 0.0011652149679228156
-0.0003079463682954467 0.0011449585567387794
-0.0003135893360424264 0.0011249648317425028
-0.0003199870699151683 0.001109831312723793
-0.0003276421291916382 0.0010933406139515347
-0.0003352101729474538 0.0010704259399259323
-0.00034107958408054694 0.0010469820387384644
-0.00034724529776242023 0.0010284712694330763
-0.00035499572019154874 0.0010089997387481267
-0.0003628723237767946 0.0009822222962362916
-0.00036858464530290793 0.00095459260039602
-0.000374310423501175 0.0009323963001865197
-0.0003820526373284332 0.0009092236555131869
-0.00038981907767414236 0.0008784757468922259
-0.00039578773190507234 0.0008456844322887745
-0.0004017851574078647 0.0008172975010850007
-0.0004095124396222363 0.0007880137271906084
-0.0004175150641531869 0.0007502189743389634
-0.0004232606273959862 0.0007090403490935019
-0.00042905202801154623 0.0006717921042198434
-0.0004363778826129381 0.000632604018441636
-0.0004448703299457943 0.0005825294546150332
-0.00045009383168382764 0.0005261356359749273
-0.0004552399992701254 0.0004692365773838274
-0.0004606945452201616 0.000406421359642651
-0.0004672951823558682 0.0003200781415440375
-0.00046311760608630433 0.000204921433362774
-0.00043705164484210694 0.0
-0.00040213448923693374 0.0
-0.0003718256225749295 0.0
-0.00035095690178214357 0.0
-0.00033366762318734787 0.0
-0.0003197636232484749 0.0
-0.00030767272186572815 0.0
-0.00029706348810621443 0.0
-0.0002873315510724546 0.0
-0.0002785408769450572 0.0
-0.000270438657241112 0.0
-0.000262886847022647 0.0
-0.00025585489359317875 0.0
-0.0002493257944769624 0.0
-0.00024314125906542815 0.0
-0.00023726582996757878 0.0
-0.00023172648530602667 0.0
-0.00022646279585031943 0.0
-0.00022146739462327564 0.0
-0.00021668868152817746 0.0
-0.00021212249713224493 0.0
-0.00020775593316758097 0.0
-0.00020356558675358502 0.0
-0.00019954520657572807 0.0
-0.0001956978216230904 0.0
-0.00019199575917114355 0.0
-0.0001884105361453211 0.0
-0.0001849571449583038 0.0
-0.00018160854752872612 0.0
-0.00017838354830945763 0.0
-0.00017525982050122202 0.0
-0.00017224387504555152 0.0
-0.00016932362319232796 0.0
-0.00016649378897384555 0.0
-0.00016374613152939503 0.0
-0.000161056982445872 0.0
-0.00015845414225247072 0.0
-0.00015594564455757246 0.0
-0.0001534577636238142 0.0
-0.00015105322507087216 0.0
-0.00014871315440875526 0.0
-0.00014642206127855672 0.0
-0.00014419007368515462 0.0
-0.00014201330202124436 0.0
-0.00013988197185708988 0.0
-0.00013780326485825266 0.0
-0.00013577713897370506 0.0
-0.00013379938543935576 0.0
-0.00013187917022923192 0.0
-0.00012997275839280123 0.0
-0.00012812589622699579 0.0
-0.00012631235003782046 0.0
-0.0001245436165490301 0.0
-0.00012279986875672394 0.0
-0.00012109645597125962 0.0
-0.00011942451441306842 0.0
-0.0001177833664942865 0.0
-0.00011617187719907363 0.0
-0.00011459054227967535 0.0
-0.0001130376719746959 0.0
-0.00011151129209743544 0.0
-0.00011001064774261777 0.0
-0.0001085399369811223 0.0
-0.00010709985477140048 0.0
-0.00010567194566816996 0.0
-0.00010427589368715577 0.0
-0.00010290112071548464 0.0
-0.00010155102430123356 0.0
-0.00010022295337056101 0.0
-9.891752221712724e-05 0.0
-9.763565505884133e-05 0.0
-9.637611969767568e-05 0.0
-9.513800351626513e-05 0.0
-9.391826542381872e-05 0.0
-9.271946127941819e-05 0.0
-9.154050674415226e-05 0.0
-9.037922122528166e-05 0.0
-8.92366838878253e-05 0.0
-8.811104509333392e-05 0.0
-8.700052181541159e-05 0.0
-8.59057623524374e-05 0.0
-8.482627190049861e-05 0.0
-8.376020455819213e-05 0.0
-8.270749429080706e-05 0.0
-8.166964464214154e-05 0.0
-8.064746706058077e-05 0.0
-7.963188593349824e-05 0.0
-7.863539447288167e-05 0.0
-7.764949824165213e-05 0.0
-7.667617548729402e-05 0.0
-7.571768711871298e-05 0.0
-7.476470295962243e-05 0.0
-7.382943230019626e-05 0.0
-7.29058866965957e-05 0.0
-7.199410075389708e-05 0.0
-7.109496944668385e-05 0.0
-7.020782730906482e-05 0.0
-6.933224206502854e-05 0.0
-6.846794921307107e-05 0.0
-6.761550503935759e-05 0.0
-6.677415358569522e-05 0.0
-6.594313018855266e-05 0.0
-6.512417084392911e-05 0.0
-6.431692225784077e-05 0.0
-6.351984612140332e-05 0.0
-6.273294222383252e-05 0.0
-6.19568968530136e-05 0.0
-6.119157027741068e-05 0.0
-6.043484880548293e-05 0.0
-5.9687816753565625e-05 0.0
-5.895064489742751e-05 0.0
-5.8222043479408726e-05 0.0
-5.75019546530845e-05 0.0
-5.679039912977737e-05 0.0
-5.608776313623806e-05 0.0
-5.539240935722944e-05 0.0
-5.4704903096105544e-05 0.0
-5.402493332467329e-05 0.0
-5.335209517375463e-05 0.0
-5.268662637202504e-05 0.0
-5.2028538088979905e-05 0.0
-5.13765943797189e-05 0.0
-5.073127032099915e-05 0.0
-5.0092051612075454e-05 0.0
-4.945916900342829e-05 0.0
-4.8833146332027263e-05 0.0
-4.821281800283469e-05 0.0
-4.7598004390748237e-05 0.0
-4.698976512123391e-05 0.0
-4.638679650794795e-05 0.0
-4.578976717276758e-05 0.0
-4.5199039227199924e-05 0.0
-4.4614237359922614e-05 0.0
-4.4035053402041376e-05 0.0
-4.3462813989741847e-05 0.0
-4.289477298781825e-05 0.0
-4.2332839845454677e-05 0.0
-4.17769501959612e-05 0.0
-4.1227577135063376e-05 0.0
-4.068394662642081e-05 0.0
-4.014635691355137e-05 0.0
-3.9614836359449453e-05 0.0
-3.908888459569455e-05 0.0
-3.856879739241097e-05 0.0
-3.80558642608329e-05 0.0
-3.754622987506791e-05 0.0
-3.704320738309021e-05 0.0
-3.654595245791015e-05 0.0
-3.60534889412465e-05 0.0
-3.556621089263669e-05 0.0
-3.5084093479440854e-05 0.0
-3.460671708840875e-05 0.0
-3.413380718455661e-05 0.0
-3.3665496005100365e-05 0.0
-3.320157376821782e-05 0.0
-3.274172681078582e-05 0.0
-3.2286191993135476e-05 0.0
-3.183448698208523e-05 0.0
-3.1386551139238774e-05 0.0
-3.0942524679277655e-05 0.0
-3.0501908278836557e-05 0.0
-3.0064601821115714e-05 0.0
-2.963104714680661e-05 0.0
-2.9201101057441343e-05 0.0
-2.8774274455814455e-05 0.0
-2.835135694993165e-05 0.0
-2.7931800461649273e-05 0.0
-2.7516027467926732e-05 0.0
-2.7103911621099336e-05 0.0
-2.6695370085481603e-05 0.0
-2.629046596459876e-05 0.0
-2.5889305847969844e-05 0.0
-2.549202751840387e-05 0.0
-2.5098405925764267e-05 0.0
-2.470879640262567e-05 0.0
-2.4323483671155265e-05 0.0
-2.394183707293515e-05 0.0
-2.3564123081606878e-05 0.0
-2.3190737343982193e-05 0.0
-2.2821319987243083e-05 0.0
-2.2455847774487e-05 0.0
-2.2094322102634785e-05 0.0
-2.173657568592754e-05 0.0
-2.138256529815424e-05 0.0
-2.1032443688469572e-05 0.0
-2.068574545843416e-05 0.0
-2.034262514170306e-05 0.0
-2.0002900255217493e-05 0.0
-1.9666538291582557e-05 0.0
-1.9333376413153162e-05 0.0
-1.9003264781410343e-05 0.0
-1.8675980319741426e-05 0.0
-1.8351400304675903e-05 0.0
-1.8029571829590867e-05 0.0
-1.771019182588938e-05 0.0
-1.7393377534864175e-05 0.0
-1.707901257423507e-05 0.0
-1.6766948681439587e-05 0.0
-1.645645124270627e-05 0.0
-1.6149042034037103e-05 0.0
-1.5842969472964318e-05 0.0
-1.5539740479860213e-05 0.0
-1.5237794655224896e-05 0.0
-1.493808022596722e-05 0.0
-1.4640457184964193e-05 0.0
-1.4344998828625654e-05 0.0
-1.4051690416195934e-05 0.0
-1.3760457394971737e-05 0.0
-1.34714784389352e-05 0.0
-1.3184782865473065e-05 0.0
-1.2900361640754246e-05 0.0
-1.2618242713872158e-05 0.0
-1.233854029131201e-05 0.0
-1.2061330026841664e-05 0.0
-1.1786491925885838e-05 0.0
-1.1514212666979511e-05 0.0
-1.1244641904333887e-05 0.0
-1.0977719235161281e-05 0.0
-1.0713574564036172e-05 0.0
-1.0451297594009814e-05 0.0
-1.0192203099353506e-05 0.0
-9.935720233006423e-06 0.0
-9.682007951079012e-06 0.0
-9.431344599601378e-06 0.0
-9.182611348130142e-06 0.0
-8.936640582989413e-06 0.0
-8.693326127731279e-06 0.0
-8.452609695587982e-06 0.0
-8.214284939556045e-06 0.0
-7.97839699908153e-06 0.0
-7.744779980286307e-06 0.0
-7.513556080541767e-06 0.0
-7.284537441139731e-06 0.0
-7.0576868407851054e-06 0.0
-6.832989359199182e-06 0.0
-6.610384874099861e-06 0.0
-6.389843406717648e-06 0.0
-6.1705831814677194e-06 0.0
-5.953511981688546e-06 0.0
-5.738331605137419e-06 0.0
-5.524998724988298e-06 0.0
-5.313722164362197e-06 0.0
-5.103410463903343e-06 0.0
-4.894855241211907e-06 0.0
-4.687996828265054e-06 0.0
-4.482784627825467e-06 0.0
-4.279185187520583e-06 0.0
-4.07736712985075e-06 0.0
-3.877120791241195e-06 0.0
-3.6784417890444473e-06 0.0
-3.4813791635301195e-06 0.0
-3.285993947274125e-06 0.0
-3.092225178699557e-06 0.0
-2.900083665321538e-06 0.0
-2.70973145623873e-06 0.0
-2.5212028874583275e-06 0.0
-2.334384137745033e-06 0.0
-2.149324939620068e-06 0.0
-1.966201749152729e-06 0.0
-1.7849930380886081e-06 0.0
-1.6055876041717921e-06 0.0
-1.428161053993408e-06 0.0
-1.2526233844796699e-06 0.0
-1.0791250048110108e-06 0.0
-9.07589170088138e-07 0.0
-7.380141452675713e-07 0.0
-5.703907769026875e-07 0.0
-4.04750084113981e-07 0.0
-2.4122405037480373e-07 0.0
-7.973004582120896e-08 0.0
7.97767407936618e-08 0.0
2.3732180645558932e-07 0.0
3.9284539667561053e-07 0.0
5.463443507977992e-07 0.0
6.978008174484126e-07 0.0
8.473530170590259e-07 0.0
9.948736874725444e-07 0.0
1.1405301051806867e-06 0.0
1.2844361773327842e-06 0.0
1.426310064318757e-06 0.0
1.566190883759439e-06 0.0
1.7044413796503472e-06 0.0
1.840727209398359e-06 0.0
1.97530599529359e-06 0.0
2.1080800465467996e-06 0.0
2.238867837386882e-06 0.0
2.3680501680448024e-06 0.0
2.4954301387178597e-06 0.0
2.621062061354178e-06 0.0
2.745084499536154e-06 0.0
2.867207899536349e-06 0.0
2.9874690362719028e-06 0.0
3.106029813425227e-06 0.0
3.2227396030900623e-06 0.0
3.3376530144969935e-06 0.0
3.450759129508701e-06 0.0
3.5619448386102364e-06 0.0
3.671241558638425e-06 0.0
3.7785611116256378e-06 0.0
3.8842312700028165e-06 0.0
3.987827051743334e-06 0.0
4.089351888374869e-06 0.0
4.188807924718603e-06 0.0
4.286201959825859e-06 0.0
4.381473413200067e-06 0.0
4.474640823631974e-06 0.0
4.56559362388756e-06 0.0
4.654324616137555e-06 0.0
4.7411256733224244e-06 0.0
4.825529758390551e-06 0.0
4.907410803413364e-06 0.0
4.987216579700151e-06 0.0
5.064901335382602e-06 0.0
5.1400151310970935e-06 0.0
5.2127313233859365e-06 0.0
5.283230333235565e-06 0.0
5.351465085041364e-06 0.0
5.417332124093769e-06 0.0
5.481044097767748e-06 0.0
5.542291457178045e-06 0.0
5.601059335391102e-06 0.0
5.6577674271223784e-06 0.0
5.712228000463106e-06 0.0
5.764461129381129e-06 0.0
5.814715636013642e-06 0.0
5.862601250512036e-06 0.0
5.908354438002663e-06 0.0
5.95212294088537e-06 0.0
5.993763894259391e-06 0.0
6.033393768808793e-06 0.0
6.071255005186974e-06 0.0
6.107245128321417e-06 0.0
6.141406012398626e-06 0.0
6.173786645722428e-06 0.0
6.2045050622802785e-06 0.0
6.2335927922680385e-06 0.0
6.261113667684881e-06 0.0
6.28709632608249e-06 0.0
6.311659601216879e-06 0.0
6.334822906473813e-06 0.0
6.356690685108568e-06 0.0
6.377326528732634e-06 0.0
6.396697717986964e-06 0.0
6.414878352617404e-06 0.0
6.431936527398772e-06 0.0
6.447875483194389e-06 0.0
6.462779593155732e-06 0.0
6.4767343510735936e-06 0.0
6.489702409224821e-06 0.0
6.501770704095995e-06 0.0
6.512942842148383e-06 0.0
6.523220373597639e-06 0.0
6.532650659110584e-06 0.0
6.541350707883069e-06 0.0
6.549149725358146e-06 0.0
6.556154799337142e-06 0.0
6.562350134567885e-06 0.0
6.567805705305212e-06 0.0
6.572516044963889e-06 0.0
6.576444715189877e-06 0.0
6.5796067744003415e-06 0.0
6.582019250664484e-06 0.0
6.583656839918648e-06 0.0
6.584482456968754e-06 0.0
6.584556321589709e-06 0.0
6.583788917356841e-06 0.0
6.58221893246804e-06 0.0
6.579816675051706e-06 0.0
6.576577078337715e-06 0.0
6.572566093200328e-06 0.0
6.567631720922371e-06 0.0
6.56180429442159e-06 0.0
6.5550728502702845e-06 0.0
6.5474625271499355e-06 0.0
6.538944846345155e-06 0.0
6.529568749490335e-06 0.0
6.519196369497193e-06 0.0
6.507905212899188e-06 0.0
6.4956967929268376e-06 0.0
6.482510779092873e-06 0.0
6.468393832915556e-06 0.0
6.45335755774766e-06 0.0
6.4373783543448055e-06 0.0
6.4204616586415235e-06 0.0
6.402612907325117e-06 0.0
6.383778645467615e-06 0.0
6.364087561216014e-06 0.0
6.343470370576436e-06 0.0
6.3219600663870385e-06 0.0
6.299561559867437e-06 0.0
6.276266699472287e-06 0.0
6.2521306699249405e-06 0.0
6.227197196230455e-06 0.0
6.201507434549002e-06 0.0
6.175008458797356e-06 0.0
6.147694728525911e-06 0.0
6.119652521117503e-06 0.0
6.090985027896792e-06 0.0
6.0616385802918015e-06 0.0
6.031674695847408e-06 0.0
6.001102620582373e-06 0.0
5.969965670813436e-06 0.0
5.938276124668511e-06 0.0
5.906073624491809e-06 0.0
5.873421453404826e-06 0.0
5.8403008112799405e-06 0.0
5.806768975920461e-06 0.0
5.772850202717966e-06 0.0
5.738599838361304e-06 0.0
5.704045408081105e-06 0.0
5.669211958924575e-06 0.0
5.634118470371335e-06 0.0
5.598785465537735e-06 0.0
5.5632839173636835e-06 0.0
5.52760317812855e-06 0.0
5.491772405312684e-06 0.0
5.455821816678821e-06 0.0
5.4197574497281556e-06 0.0
5.3836316584407535e-06 0.0
5.347445562842608e-06 0.0
5.3112145087646715e-06 0.0
5.274952768981762e-06 0.0
5.238686970478582e-06 0.0
5.202413362437408e-06 0.0
5.166147452762788e-06 0.0
5.129895104769875e-06 0.0
5.093668776975568e-06 0.0
5.057477953526079e-06 0.0
5.0213153147455296e-06 0.0
4.94779622244606e-06 0.0
4.907188268311675e-06 0.0
4.863093041654481e-06 0.0
4.815206889337505e-06 0.0
4.76319454551313e-06 0.0
4.706684859132848e-06 0.0
4.645251285851103e-06 0.0
4.57841019492086e-06 0.0
4.505603229985281e-06 0.0
4.4261747927989885e-06 0.0
4.339341585440037e-06 0.0
4.244208718776949e-06 0.0
4.139627862446063e-06 0.0
4.024368907828894e-06 0.0
3.896879239737053e-06 0.0
3.755275894888967e-06 0.0
3.5976317685499515e-06 0.0
3.4221112659289503e-06 0.0
3.2262640087232253e-06 0.0
3.0088765553205222e-06 0.0
2.768870451242096e-06 0.0
2.506617068990416e-06 0.0
2.224978426450103e-06 0.0
1.926860415163183e-06 0.0
1.6210587641914573e-06 0.0
1.3154954801252502e-06 0.0
1.0240295476424537e-06 0.0
7.593309280067169e-07 0.0
5.313026407459563e-07 0.0
3.4784469558802177e-07 0.0
2.1067111578217038e-07 0.0
1.1647588642763718e-07 0.0
5.7300660534130455e-08 0.0
2.524131608249466e-08 0.0
9.56536500909633e-09 0.0
3.013508646560286e-09 0.0
7.484817105073247e-10 0.0
1.483982654426132e-10 0.0
2.5710313993635e-11 0.0
3.2002500352982316e-12 0.0
1.938066478339846e-13 0.0
7.127586620417122e-15 0.0
6.091128114950438e-16 0.0
-4.902713949404683e-17 0.0
1.0789234887106908e-16 0.0
7.893091703615482e-18 0.0
1.7605633412621168e-17 0.0
3.518953124647839e-17 0.0
-1.1250970727563711e-17 0.0
-7.066623491962388e-17 0.0
-3.4948459810998134e-17 0.0
1.684698858473447e-17 0.0
-2.2097284920368482e-17 0.0
3.2212519227773207e-17 0.0
5.717342655870313e-17 0.0
6.810893865318332e-17 0.0
2.951050164549202e-17 0.0
-1.0606952825041465e-16 0.0
-9.894092330418635e-17 0.0
8.407691203327216e-17 0.0
4.771449937463126e-16 0.0
3.778378855011304e-16 0.0
-1.458867918302415e-17 0.0
-5.699355500169734e-19 0.0
-3.4866111258996054e-16 0.0
-9.564596278508366e-17 0.0
8.446300531301336e-17 0.0
5.724196680867335e-17 0.0
-8.175227088057783e-17 0.0
1.5804769823767053e-16 0.0
5.271205300914342e-18 0.0
5.527728822609038e-16 0.0
-8.367114023521262e-16 0.0
-2.284674970092048e-17 0.0
1.307582696915072e-15 0.0
-5.04082855284815e-16 0.0
-4.391677244349371e-16 0.0
3.9841840411942935e-16 0.0
-6.124401692311602e-16 0.0
0.0 0.009234165287260145
0.0 0.022109785930456895
0.0 0.04006285207148452
0.0 0.06509563926316016
-7.911359440962432e-16 0.1
-1.2475720748253175e-15 0.1
1.448730217296181e-14 0.1
-1.5997086105405593e-14 0.1
0.0 0.09234095951661656
0.0 0.08526779443703021
0.0 0.07873568783498035
0.0 0.07270325358166616
0.0 0.06713226878994574
0.0 0.06198743331092802
0.0 0.05723615233795883
0.0 0.052848316929523215
0.0 0.04879612844994891
0.0 0.0450539106578431
0.0 0.04159795282711748
0.0 0.03840635724257321
0.0 0.035458901718225085
0.0 0.032736910873329764
0.0 0.03022313773603337
0.0 0.02790165483820638
0.0 0.025757753001962622
0.0 0.023777848352117218
0.0 0.021949395807804046
0.0 0.02026081025589515
0.0 0.018701392223655945
0.0 0.017261261595035417
0.0 0.015931293336679413
0.0 0.014703060373013298
0.0 0.013568780782807339
0.0 0.01252126748402255
0.0 0.011553883408042288
0.0 0.010660499174201999
0.0 0.009835453889888438
0.0 0.009073520475697079
0.0 0.008369868840588119
0.0 0.007720067738002963
0.0 0.0071198682686757055
0.0 0.006565612286881595
0.0 0.0060571469422235685
0.0 0.005591267096462622
0.0 0.005163618210981058
0.0 0.004771991734615041
0.0 0.004413657479247898
0.0 0.004086153951840372
0.0 0.0037882859959255852
0.0 0.0035174776586218127
0.0 0.0032714921877725644
0.0 0.0030486192201818114
0.0 0.0028472464458892265
0.0 0.0026654691435487863
0.0 0.0025019784662057734
0.0 0.0023559787283636323
0.0 0.0022256836074743725
0.0 0.0021101580539907914
0.0 0.002009352408077125
0.0 0.001921157067899962
0.0 0.0018447524114763166
0.0 0.0017795397901314374
0.0 0.0017239077737204616
0.0 0.0016777191192201477
0.0 0.0016396572125820527
0.0 0.0016092054526010903
0.0 0.0015851505118705672
0.0 0.0015665355110861335
0.0 0.001552278935918549
0.0 0.0015418354987459836
0.0 0.0015346729619159143
0.0 0.0015290015703489804
0.0 0.0015257638386430652
0.0 0.0015227310865805687
0.0 0.001520837054371667
0.0 0.0015193930029769492
0.0 0.0015180952936822251
0.0 0.0015168724316451526
0.0 0.0015153533307063014
0.0 0.001513732299726139
0.0 0.0015118662811505696
0.0 0.001509868062822467
0.0 0.0015076634706399832
0.0 0.0015054191016369422
0.0 0.0015030640702299195
0.0 0.0015006360829212014
0.0 0.0014981804526984315
0.0 0.001495685253394372
0.0 0.0014932621963498675
0.0 0.0014908271846539977
0.0 0.0014884660127277313
-2.2163341192790927e-08 0.00492723119956817
3.4728558437207524e-05 0.00279067888576622
7.778044494360624e-05 0.0016425336430968983
0.0001129400470745722 0.0011993525696561305
2.4676753424175183e-05 0.0014027527579651019
4.257396235130965e-06 0.0022611881303378875
0.00011423009769553053 0.001190957588003174
1.0337038131422051e-05 0.0012864531000873732
1.7533957646058755e-05 0.0008261871680856035
2.120753817650339e-06 0.0007706134521696332
4.501502798049798e-06 0.0007040620954675974
8.1187255750437e-06 0.0006734726212279963
-4.3872252562499147e-16 0.01497373646140765
7.261543232055871e-06 0.0006654040921852629
2.7514485278156165e-05 0.0006254483856149923
-3.0534924375807184e-05 0.0004800380172883057
2.5455579044774894e-06 0.0011707906302821675