# vtk DataFile Version 3.0
Some data
ASCII
DATASET UNSTRUCTURED_GRID
POINTS 7930 float
0.0 0.0 0.0
0.0 10.0 0.0
10.0 10.0 0.0
10.0 0.0 0.0
0.5 0.0 0.0
0.0009999999999981016 0.0 0.0
0.001999999999996203 0.0 0.0
0.002999999999994305 0.0 0.0
0.003999999999992409 0.0 0.0
0.004999999999990531 0.0 0.0
0.005999999999988653 0.0 0.0
0.006999999999986775 0.0 0.0
0.007999999999984898 0.0 0.0
0.008999999999983018 0.0 0.0
0.009999999999981142 0.0 0.0
0.01099999999997926 0.0 0.0
0.01199999999997736 0.0 0.0
0.0129999999999754 0.0 0.0
0.01399999999997343 0.0 0.0
0.01499999999997147 0.0 0.0
0.01599999999996944 0.0 0.0
0.0169999999999673 0.0 0.0
0.01799999999996516 0.0 0.0
0.01899999999996302 0.0 0.0
0.01999999999996084 0.0 0.0
0.02099999999995862 0.0 0.0
0.02199999999995639 0.0 0.0
0.02299999999995417 0.0 0.0
0.02399999999995195 0.0 0.0
0.02499999999994972 0.0 0.0
0.0259999999999475 0.0 0.0
0.02699999999994527 0.0 0.0
0.02799999999994315 0.0 0.0
0.0289999999999411 0.0 0.0
0.02999999999993905 0.0 0.0
0.030999999999937 0.0 0.0
0.03199999999993521 0.0 0.0
0.0329999999999335 0.0 0.0
0.0339999999999318 0.0 0.0
0.03499999999993009 0.0 0.0
0.03599999999992853 0.0 0.0
0.036999999999927 0.0 0.0
0.03799999999992547 0.0 0.0
0.03899999999992394 0.0 0.0
0.03999999999992241 0.0 0.0
0.04099999999992088 0.0 0.0
0.04199999999991934 0.0 0.0
0.04299999999991782 0.0 0.0
0.04399999999991629 0.0 0.0
0.04499999999991475 0.0 0.0
0.04599999999991322 0.0 0.0
0.0469999999999117 0.0 0.0
0.04799999999991016 0.0 0.0
0.04899999999990863 0.0 0.0
0.0499999999999071 0.0 0.0
0.05099999999990557 0.0 0.0
0.05199999999990404 0.0 0.0
0.05299999999990251 0.0 0.0
0.05399999999990097 0.0 0.0
0.05499999999989943 0.0 0.0
0.05599999999989791 0.0 0.0
0.05699999999989638 0.0 0.0
0.05799999999989484 0.0 0.0
0.05899999999989317 0.0 0.0
0.05999999999989129 0.0 0.0
0.06099999999988941 0.0 0.0
0.06199999999988753 0.0 0.0
0.06299999999988531 0.0 0.0
0.06399999999988273 0.0 0.0
0.06499999999988015 0.0 0.0
0.06599999999987759 0.0 0.0
0.0669999999998748 0.0 0.0
0.06799999999987189 0.0 0.0
0.06899999999986897 0.0 0.0
0.06999999999986604 0.0 0.0
0.07099999999986313 0.0 0.0
0.0719999999998602 0.0 0.0
0.07299999999985729 0.0 0.0
0.07399999999985438 0.0 0.0
0.07499999999985145 0.0 0.0
0.07599999999984854 0.0 0.0
0.07699999999984562 0.0 0.0
0.0779999999998427 0.0 0.0
0.07899999999983978 0.0 0.0
0.07999999999983685 0.0 0.0
0.08099999999983394 0.0 0.0
0.08199999999983103 0.0 0.0
0.0829999999998281 0.0 0.0
0.08399999999982519 0.0 0.0
0.08499999999982226 0.0 0.0
0.08599999999981935 0.0 0.0
0.08699999999981643 0.0 0.0
0.0879999999998135 0.0 0.0
0.08899999999981059 0.0 0.0
0.08999999999980766 0.0 0.0
0.09099999999980475 0.0 0.0
0.09199999999980184 0.0 0.0
0.09299999999979891 0.0 0.0
0.093999999999796 0.0 0.0
0.09499999999979307 0.0 0.0
0.09599999999979016 0.0 0.0
0.09699999999978724 0.0 0.0
0.09799999999978432 0.0 0.0
0.0989999999997814 0.0 0.0
0.09999999999977847 0.0 0.0
0.1009999999997756 0.0 0.0
0.1019999999997726 0.0 0.0
0.1029999999997697 0.0 0.0
0.1039999999997668 0.0 0.0
0.1049999999997639 0.0 0.0
0.105999999999761 0.0 0.0
0.106999999999758 0.0 0.0
0.1079999999997551 0.0 0.0
0.1089999999997522 0.0 0.0
0.1099999999997493 0.0 0.0
0.1109999999997464 0.0 0.0
0.1119999999997434 0.0 0.0
0.1129999999997405 0.0 0.0
0.1139999999997376 0.0 0.0
0.1149999999997347 0.0 0.0
0.1159999999997318 0.0 0.0
0.1169999999997288 0.0 0.0
0.1179999999997259 0.0 0.0
0.118999999999723 0.0 0.0
0.1199999999997201 0.0 0.0
0.1209999999997172 0.0 0.0
0.1219999999997143 0.0 0.0
0.1229999999997113 0.0 0.0
0.1239999999997084 0.0 0.0
0.1249999999997055 0.0 0.0
0.1259999999997026 0.0 0.0
0.1269999999996997 0.0 0.0
0.1279999999996967 0.0 0.0
0.1289999999996938 0.0 0.0
0.1299999999996909 0.0 0.0
0.130999999999688 0.0 0.0
0.1319999999996851 0.0 0.0
0.1329999999996822 0.0 0.0
0.1339999999996792 0.0 0.0
0.1349999999996764 0.0 0.0
0.1359999999996734 0.0 0.0
0.1369999999996705 0.0 0.0
0.1379999999996676 0.0 0.0
0.1389999999996647 0.0 0.0
0.1399999999996618 0.0 0.0
0.1409999999996588 0.0 0.0
0.1419999999996559 0.0 0.0
0.142999999999653 0.0 0.0
0.1439999999996501 0.0 0.0
0.1449999999996472 0.0 0.0
0.1459999999996442 0.0 0.0
0.1469999999996414 0.0 0.0
0.1479999999996384 0.0 0.0
0.1489999999996355 0.0 0.0
0.1499999999996326 0.0 0.0
0.1509999999996297 0.0 0.0
0.1519999999996268 0.0 0.0
0.1529999999996239 0.0 0.0
0.1539999999996209 0.0 0.0
0.154999999999618 0.0 0.0
0.1559999999996151 0.0 0.0
0.1569999999996122 0.0 0.0
0.1579999999996093 0.0 0.0
0.1589999999996064 0.0 0.0
0.1599999999996035 0.0 0.0
0.1609999999996005 0.0 0.0
0.1619999999995976 0.0 0.0
0.1629999999995947 0.0 0.0
0.1639999999995918 0.0 0.0
0.1649999999995889 0.0 0.0
0.165999999999586 0.0 0.0
0.1669999999995831 0.0 0.0
0.1679999999995801 0.0 0.0
0.1689999999995772 0.0 0.0
0.1699999999995743 0.0 0.0
0.1709999999995714 0.0 0.0
0.1719999999995685 0.0 0.0
0.1729999999995655 0.0 0.0
0.1739999999995626 0.0 0.0
0.1749999999995597 0.0 0.0
0.1759999999995568 0.0 0.0
0.1769999999995539 0.0 0.0
0.177999999999551 0.0 0.0
0.178999999999548 0.0 0.0
0.1799999999995451 0.0 0.0
0.1809999999995422 0.0 0.0
0.1819999999995393 0.0 0.0
0.1829999999995364 0.0 0.0
0.1839999999995335 0.0 0.0
0.1849999999995305 0.0 0.0
0.1859999999995277 0.0 0.0
0.1869999999995247 0.0 0.0
0.1879999999995218 0.0 0.0
0.1889999999995189 0.0 0.0
0.189999999999516 0.0 0.0
0.1909999999995131 0.0 0.0
0.1919999999995101 0.0 0.0
0.1929999999995072 0.0 0.0
0.1939999999995043 0.0 0.0
0.1949999999995014 0.0 0.0
0.1959999999994985 0.0 0.0
0.1969999999994956 0.0 0.0
0.1979999999994927 0.0 0.0
0.1989999999994897 0.0 0.0
0.1999999999994868 0.0 0.0
0.2009999999994839 0.0 0.0
0.201999999999481 0.0 0.0
0.2029999999994781 0.0 0.0
0.2039999999994752 0.0 0.0
0.2049999999994722 0.0 0.0
0.2059999999994693 0.0 0.0
0.2069999999994664 0.0 0.0
0.2079999999994635 0.0 0.0
0.2089999999994606 0.0 0.0
0.2099999999994577 0.0 0.0
0.2109999999994548 0.0 0.0
0.2119999999994518 0.0 0.0
0.2129999999994489 0.0 0.0
0.213999999999446 0.0 0.0
0.2149999999994431 0.0 0.0
0.2159999999994402 0.0 0.0
0.2169999999994373 0.0 0.0
0.2179999999994343 0.0 0.0
0.2189999999994314 0.0 0.0
0.2199999999994285 0.0 0.0
0.2209999999994256 0.0 0.0
0.2219999999994227 0.0 0.0
0.2229999999994198 0.0 0.0
0.2239999999994168 0.0 0.0
0.2249999999994139 0.0 0.0
0.225999999999411 0.0 0.0
0.2269999999994081 0.0 0.0
0.2279999999994052 0.0 0.0
0.2289999999994023 0.0 0.0
0.2299999999993994 0.0 0.0
0.2309999999993964 0.0 0.0
0.2319999999993935 0.0 0.0
0.2329999999993906 0.0 0.0
0.2339999999993877 0.0 0.0
0.2349999999993848 0.0 0.0
0.2359999999993818 0.0 0.0
0.236999999999379 0.0 0.0
0.237999999999376 0.0 0.0
0.2389999999993731 0.0 0.0
0.2399999999993702 0.0 0.0
0.2409999999993673 0.0 0.0
0.2419999999993644 0.0 0.0
0.2429999999993615 0.0 0.0
0.2439999999993585 0.0 0.0
0.2449999999993556 0.0 0.0
0.2459999999993527 0.0 0.0
0.246999999999351 0.0 0.0
0.2479999999993495 0.0 0.0
0.248999999999348 0.0 0.0
0.2499999999993464 0.0 0.0
0.2509999999993477 0.0 0.0
0.2519999999993489 0.0 0.0
0.2529999999993502 0.0 0.0
0.2539999999993516 0.0 0.0
0.2549999999993542 0.0 0.0
0.2559999999993569 0.0 0.0
0.2569999999993595 0.0 0.0
0.2579999999993621 0.0 0.0
0.2589999999993647 0.0 0.0
0.2599999999993673 0.0 0.0
0.26099999999937 0.0 0.0
0.2619999999993726 0.0 0.0
0.2629999999993753 0.0 0.0
0.2639999999993779 0.0 0.0
0.2649999999993806 0.0 0.0
0.2659999999993832 0.0 0.0
0.2669999999993858 0.0 0.0
0.2679999999993884 0.0 0.0
0.2689999999993911 0.0 0.0
0.2699999999993937 0.0 0.0
0.2709999999993963 0.0 0.0
0.271999999999399 0.0 0.0
0.2729999999994017 0.0 0.0
0.2739999999994043 0.0 0.0
0.2749999999994069 0.0 0.0
0.2759999999994096 0.0 0.0
0.2769999999994122 0.0 0.0
0.2779999999994148 0.0 0.0
0.2789999999994174 0.0 0.0
0.2799999999994201 0.0 0.0
0.2809999999994228 0.0 0.0
0.2819999999994254 0.0 0.0
0.282999999999428 0.0 0.0
0.2839999999994306 0.0 0.0
0.2849999999994333 0.0 0.0
0.2859999999994359 0.0 0.0
0.2869999999994385 0.0 0.0
0.2879999999994411 0.0 0.0
0.2889999999994439 0.0 0.0
0.2899999999994465 0.0 0.0
0.2909999999994491 0.0 0.0
0.2919999999994517 0.0 0.0
0.2929999999994544 0.0 0.0
0.293999999999457 0.0 0.0
0.2949999999994596 0.0 0.0
0.2959999999994622 0.0 0.0
0.2969999999994649 0.0 0.0
0.2979999999994676 0.0 0.0
0.2989999999994702 0.0 0.0
0.2999999999994728 0.0 0.0
0.3009999999994754 0.0 0.0
0.3019999999994781 0.0 0.0
0.3029999999994807 0.0 0.0
0.3039999999994834 0.0 0.0
0.304999999999486 0.0 0.0
0.3059999999994886 0.0 0.0
0.3069999999994913 0.0 0.0
0.3079999999994939 0.0 0.0
0.3089999999994965 0.0 0.0
0.3099999999994992 0.0 0.0
0.3109999999995018 0.0 0.0
0.3119999999995045 0.0 0.0
0.3129999999995071 0.0 0.0
0.3139999999995097 0.0 0.0
0.3149999999995123 0.0 0.0
0.315999999999515 0.0 0.0
0.3169999999995176 0.0 0.0
0.3179999999995203 0.0 0.0
0.3189999999995229 0.0 0.0
0.3199999999995256 0.0 0.0
0.3209999999995282 0.0 0.0
0.3219999999995308 0.0 0.0
0.3229999999995334 0.0 0.0
0.323999999999536 0.0 0.0
0.3249999999995387 0.0 0.0
0.3259999999995414 0.0 0.0
0.326999999999544 0.0 0.0
0.3279999999995466 0.0 0.0
0.3289999999995493 0.0 0.0
0.3299999999995519 0.0 0.0
0.3309999999995545 0.0 0.0
0.3319999999995571 0.0 0.0
0.3329999999995598 0.0 0.0
0.3339999999995625 0.0 0.0
0.3349999999995651 0.0 0.0
0.3359999999995677 0.0 0.0
0.3369999999995703 0.0 0.0
0.337999999999573 0.0 0.0
0.3389999999995756 0.0 0.0
0.3399999999995783 0.0 0.0
0.3409999999995809 0.0 0.0
0.3419999999995835 0.0 0.0
0.3429999999995862 0.0 0.0
0.3439999999995888 0.0 0.0
0.3449999999995914 0.0 0.0
0.345999999999594 0.0 0.0
0.3469999999995967 0.0 0.0
0.3479999999995994 0.0 0.0
0.348999999999602 0.0 0.0
0.3499999999996046 0.0 0.0
0.3509999999996072 0.0 0.0
0.3519999999996099 0.0 0.0
0.3529999999996125 0.0 0.0
0.3539999999996151 0.0 0.0
0.3549999999996178 0.0 0.0
0.3559999999996205 0.0 0.0
0.3569999999996231 0.0 0.0
0.3579999999996257 0.0 0.0
0.3589999999996283 0.0 0.0
0.359999999999631 0.0 0.0
0.3609999999996336 0.0 0.0
0.3619999999996362 0.0 0.0
[...]
POINT_DATA 7930
SCALARS Disp float 2
LOOKUP_TABLE default
0.0 0.0019066665522656074
0.0 0.1
0.0 0.1
0.0 0.0
7.046800255824642e-06 0.0
-6.748887586699129e-06 0.001906478400248831
-1.3483263311015754e-05 0.0019061748752763161
-2.0263266292808224e-05 0.0019059236277333184
-2.7064875525900213e-05 0.0019050790554590842
-3.3691131019650085e-05 0.0019038094365522288
-4.0576070489663625e-05 0.0019031319600397109
-4.7835081644515576e-05 0.001902122507560904
-5.4712942289202084e-05 0.001899661189597694
-6.117591592586427e-05 0.0018969735080617937
-6.778447159852267e-05 0.0018955860426709283
-7.52172990663605e-05 0.0018943956282996197
-8.253891815929108e-05 0.001890711543053097
-8.87300093219946e-05 0.0018862600311807575
-9.515713833770826e-05 0.0018838009094530581
-0.00010258743142872923 0.001882077589168198
-0.0001097684650649199 0.0018777400460921513
-0.00011608115008484565 0.0018721579498621695
-0.00012229149532234787 0.0018686636992436923
-0.00012982281179182303 0.001866104197390323
-0.00013722885323705974 0.0018607048256920281
-0.00014346777010797344 0.001853623681395822
-0.000149539862465228 0.0018493667038401483
-0.00015700424016555238 0.0018464182887772162
-0.00016469159830458221 0.0018399719982748202
-0.00017084119850137799 0.0018311419825924444
-0.0001767574364579226 0.0018257436869163937
-0.00018406076247718016 0.0018221302663548866
-0.00019185502755626318 0.0018149565159867077
-0.0001981025151930763 0.0018051124875528134
-0.00020390644207676003 0.001798271017621676
-0.00021108881594912224 0.0017938693539246344
-0.00021890865010096254 0.0017859240227775218
-0.00022528350141363308 0.0017748277954531678
-0.00023135313232442833 0.0017666113262978748
-0.000238510885225933 0.0017613688356678467
-0.0002466858632380364 0.0017524429602932433
-0.0002531894611349111 0.001739640282793062
-0.0002588208775923152 0.0017297159916586284
-0.0002659288657201297 0.0017233890580925857
-0.00027394167363313857 0.001713428626064915
-0.0002803649166321128 0.001699314503669122
-0.00028621894265377907 0.001688205740810922
-0.000293151362865315 0.0016807712444241413
-0.0003015552801313213 0.0016698617503887094
-0.00030831446846105696 0.001654066122595697
-0.0003138348922906191 0.0016408656151391562
-0.00032088835618733003 0.0016319549993903714
-0.0003286691051595865 0.0016200019016999478
-0.0003355303699997303 0.0016030521523092479
-0.00034118632837999555 0.001588095322060949
-0.0003479599771734011 0.0015777125835468044
-0.0003560010478315799 0.0015646241051227342
-0.00036320355067550366 0.001545445493579952
-0.00036867111395118924 0.0015286526551464012
-0.0003752928001610742 0.0015168590755417492
-0.00038353895893540206 0.0015021276299562048
-0.0003906243243890141 0.0014810965434211428
-0.000395869076473824 0.0014616148396667588
-0.00040208414957680394 0.0014476099752988654
-0.0004100669948576287 0.001431674856897143
-0.00041736112105207406 0.0014092294487063814
-0.0004230758467367731 0.0013874363679350788
-0.000429420572933777 0.0013712427430257695
-0.00043742241078752154 0.0013532405882736782
-0.00044498489546864194 0.0013281470861663416
-0.00045045170965695835 0.001303231206939733
-0.0004564854656532281 0.0012841246057831933
-0.0004643819322311988 0.0012636051766208997
-0.00047207136569895686 0.0012355913215910733
-0.0004775105091219734 0.0012072891066759192
-0.0004833207164767107 0.001184893737022215
-0.0004908744987748802 0.0011615922005883002
-0.0004986635965043496 0.0011303196605324422
-0.0005043435692401315 0.0010977293532862832
-0.0005101797751117938 0.0010710012072643674
-0.0005182709551679112 0.0010433378165946418
-0.0005265026262944333 0.0010068461418021762
-0.0005321567239660305 0.0009682190687052705
-0.0005378571808933362 0.0009349628798714627
-0.0005457135462747856 0.0009005487402765768
-0.0005541406011393118 0.0008566919571301411
-0.0005597063259027295 0.0008091006034847968
-0.0005653764808261128 0.0007652931926762969
-0.0005735007850262261 0.0007198102744550823
-0.0005807033668339074 0.0006626702912015696
-0.0005864312348476444 0.0005980364213305838
-0.0005907594625835535 0.0005343098006447651
-0.0005975778112798195 0.00046225793814909605
-0.0006037320492921543 0.00036355471262898396
-0.0005976620554903773 0.0002329095059396039
-0.0005693795334273288 0.0
-0.0005202942007132254 0.0
-0.0004904417105372929 0.0
-0.0004658733361738048 0.0
-0.0004470000139438496 0.0
-0.0004309983602167078 0.0
-0.00041641956121686374 0.0
-0.0004036480541518423 0.0
-0.00039194051711750004 0.0
-0.0003812795130228956 0.0
-0.00037146205657523503 0.0
-0.00036237918882018406 0.0
-0.00035391087943001105 0.0
-0.0003459895641523083 0.0
-0.0003385169203391656 0.0
-0.00033135916668190735 0.0
-0.000324628970039307 0.0
-0.0003183391618634017 0.0
-0.0003121414509858503 0.0
-0.00030630530100325806 0.0
-0.000300741065105563 0.0
-0.00029536937585441847 0.0
-0.00029021980878936695 0.0
-0.000285268549430565 0.0
-0.00028047061702678096 0.0
-0.00027584693038274676 0.0
-0.00027139191885919154 0.0
-0.0002670854233048471 0.0
-0.0002629547999974759 0.0
-0.000258855176211284 0.0
-0.0002549380525222354 0.0
-0.00025111521908762125 0.0
-0.0002474209779144886 0.0
-0.00024379661564658084 0.0
-0.000240290038071297 0.0
-0.0002368733115262599 0.0
-0.00023354446850203827 0.0
-0.000230299820601731 0.0
-0.00022714104815739657 0.0
-0.00022406157938435002 0.0
-0.00022105536722995717 0.0
-0.00021811819672279127 0.0
-0.00021526031107933452 0.0
-0.00021248083947773036 0.0
-0.00020972974231859944 0.0
-0.0002070580176919072 0.0
-0.0002044341539771727 0.0
-0.00020186665050472377 0.0
-0.00019934755482630892 0.0
-0.00019687763207338021 0.0
-0.00019445841689901414 0.0
-0.0001920872357009276 0.0
-0.0001897614378991605 0.0
-0.0001874743460294181 0.0
-0.00018523292256761835 0.0
-0.00018303518198379458 0.0
-0.00018087692942332035 0.0
-0.00017876176145647274 0.0
-0.0001766859191794984 0.0
-0.0001746460166398029 0.0
-0.00017264387512039707 0.0
-0.0001706787893623906 0.0
-0.00016874642988724586 0.0
-0.00016684649724713128 0.0
-0.00016498198298019905 0.0
-0.00016315400761131305 0.0
-0.00016134212621712267 0.0
-0.00015957276141922544 0.0
-0.00015782668253038875 0.0
-0.0001561071354621764 0.0
-0.00015441860060840158 0.0
-0.0001527391884092241 0.0
-0.00015109671453503046 0.0
-0.00014947602790585517 0.0
-0.00014787694779128403 0.0
-0.00014630179499307573 0.0
-0.00014474870806255118 0.0
-0.00014321698578773887 0.0
-0.00014170588116778034 0.0
-0.0001402165941137355 0.0
-0.00013874782552049475 0.0
-0.00013729773362855383 0.0
-0.0001358703497828484 0.0
-0.0001344650729219392 0.0
-0.00013307850076482987 0.0
-0.00013171058121711618 0.0
-0.0001303628161865946 0.0
-0.00012903506565126706 0.0
-0.00012772262743234662 0.0
-0.00012642762940443818 0.0
-0.00012515070097237455 0.0
-0.0001238888885512892 0.0
-0.00012264196192668796 0.0
-0.00012141044347310416 0.0
-0.00012019526655724622 0.0
-0.00011899276587084571 0.0
-0.00011780462458987837 0.0
-0.00011663027759271653 0.0
-0.00011546915540573131 0.0
-0.00011432228448262021 0.0
-0.00011318982546983008 0.0
-0.0001120694916945715 0.0
-0.00011096255095006279 0.0
-0.00010986813682614991 0.0
-0.00010878687633301753 0.0
-0.00010771995460690706 0.0
-0.0001066650049875005 0.0
-0.00010562165466522767 0.0
-0.0001045918841538223 0.0
-0.00010357291843930215 0.0
-0.00010256584331589286 0.0
-0.00010157111594903898 0.0
-0.00010058760664681097 0.0
-9.961426773396782e-05 0.0
-9.865346477104154e-05 0.0
-9.769926112603788e-05 0.0
-9.675509329626797e-05 0.0
-9.582061012376144e-05 0.0
-9.4896459009604e-05 0.0
-9.398073170743674e-05 0.0
-9.307376872599454e-05 0.0
-9.21757855322602e-05 0.0
-9.128552519175118e-05 0.0
-9.040343288181889e-05 0.0
-8.953263012693332e-05 0.0
-8.866497745060637e-05 0.0
-8.780766115968964e-05 0.0
-8.695901317871564e-05 0.0
-8.611725181729259e-05 0.0
-8.528365951231338e-05 0.0
-8.445828942047467e-05 0.0
-8.364070569693717e-05 0.0
-8.283069363975794e-05 0.0
-8.202874315418741e-05 0.0
-8.123468717612506e-05 0.0
-8.04480435906515e-05 0.0
-7.966960954275271e-05 0.0
-7.88985440848676e-05 0.0
-7.813486201959813e-05 0.0
-7.73790038040548e-05 0.0
-7.662988406440765e-05 0.0
-7.588734547001322e-05 0.0
-7.515228367879026e-05 0.0
-7.442427134219034e-05 0.0
-7.370222435653997e-05 0.0
-7.298762813822958e-05 0.0
-7.227920081447654e-05 0.0
-7.157753768864134e-05 0.0
-7.088220736240606e-05 0.0
-7.019287546063454e-05 0.0
-6.950935812857603e-05 0.0
-6.883165143564618e-05 0.0
-6.81599837919547e-05 0.0
-6.74935174581997e-05 0.0
-6.683274179328037e-05 0.0
-6.617825911912067e-05 0.0
-6.552836967167877e-05 0.0
-6.488369834611162e-05 0.0
-6.424488360856223e-05 0.0
-6.361107281908347e-05 0.0
-6.29824306202101e-05 0.0
-6.235883194411932e-05 0.0
-6.17398320974674e-05 0.0
-6.112585075598566e-05 0.0
-6.051714517227826e-05 0.0
-5.991293338331146e-05 0.0
-5.931360374211216e-05 0.0
-5.87190573591157e-05 0.0
-5.8129481205611516e-05 0.0
-5.754485283420943e-05 0.0
-5.6965088715380576e-05 0.0
-5.639001564181689e-05 0.0
-5.5819579325449614e-05 0.0
-5.525414090092808e-05 0.0
-5.469335721498443e-05 0.0
-5.413760104901372e-05 0.0
-5.358682944134565e-05 0.0
-5.3040879161253496e-05 0.0
-5.2498437731339854e-05 0.0
-5.1962563932158615e-05 0.0
-5.14297851640405e-05 0.0
-5.090308539679045e-05 0.0
-5.037937677446887e-05 0.0
-4.986040913000757e-05 0.0
-4.934581425998664e-05 0.0
-4.8835579484611625e-05 0.0
-4.83295077959344e-05 0.0
-4.782726581327314e-05 0.0
-4.7328980593137714e-05 0.0
-4.683453778296537e-05 0.0
-4.634360054963986e-05 0.0
-4.5855955778094914e-05 0.0
-4.537176668106431e-05 0.0
-4.489086700680347e-05 0.0
-4.441290527364842e-05 0.0
-4.393802617307018e-05 0.0
-4.346626297802758e-05 0.0
-4.2997538366040484e-05 0.0
-4.2531879306225e-05 0.0
-4.2067431611613687e-05 0.0
-4.160697014782488e-05 0.0
-4.1149301072136855e-05 0.0
-4.0694427790979846e-05 0.0
-4.02432800893503e-05 0.0
-3.9793696046386615e-05 0.0
-3.9347350780785354e-05 0.0
-3.890424349370322e-05 0.0
-3.84643911234392e-05 0.0
-3.802751729849685e-05 0.0
-3.759385252424452e-05 0.0
-3.716335917585907e-05 0.0
-3.6736353441117765e-05 0.0
-3.6312656421019083e-05 0.0
-3.589233121304188e-05 0.0
-3.547552018895355e-05 0.0
-3.506228047850483e-05 0.0
-3.4652601007183805e-05 0.0
-3.424507144158467e-05 0.0
-3.3841599076795424e-05 0.0
-3.344158984013383e-05 0.0
-3.304498122290972e-05 0.0
-3.265226923111262e-05 0.0
-3.2261242165936956e-05 0.0
-3.187342188492892e-05 0.0
-3.1488692683753605e-05 0.0
-3.11068700587909e-05 0.0
-3.0727736724325425e-05 0.0
-3.0351599620286174e-05 0.0
-2.9977934827463433e-05 0.0
-2.9606759235595872e-05 0.0
-2.9237893350979128e-05 0.0
-2.8871365836261697e-05 0.0
-2.8507100562111654e-05 0.0
-2.814486358763494e-05 0.0
-2.778485472881262e-05 0.0
-2.7427240879587893e-05 0.0
-2.7071464749461607e-05 0.0
-2.6717705761795917e-05 0.0
-2.6366225356188535e-05 0.0
-2.6016843789637648e-05 0.0
-2.566946319967697e-05 0.0
-2.532433201408316e-05 0.0
-2.498126731880668e-05 0.0
-2.4640554336957994e-05 0.0
-2.4302090176474288e-05 0.0
-2.3965887795183365e-05 0.0
-2.3631968506503303e-05 0.0
-2.330044180814646e-05 0.0
-2.2971521349462866e-05 0.0
-2.2645131150009934e-05 0.0
-2.2321210829089916e-05 0.0
-2.1999776548484916e-05 0.0
-2.1681002063547183e-05 0.0
-2.1364860774948495e-05 0.0
-2.1051266537075074e-05 0.0
-2.0740343563142882e-05 0.0
-2.0432096675355963e-05 0.0
-2.0126412539164278e-05 0.0
-1.9823141974552936e-05 0.0
-1.9522454509422022e-05 0.0
-1.9224303516694543e-05 0.0
-1.8928359225591214e-05 0.0
-1.8634886878510347e-05 0.0
-1.83435895085095e-05 0.0
-1.8054440321900886e-05 0.0
-1.776744282878081e-05 0.0
-1.7482445091868137e-05 0.0
-1.719946154492652e-05 0.0
-1.6918315058467948e-05 0.0
-1.663891404503334e-05 0.0
-1.6361307956625226e-05 0.0
-1.608538166745659e-05 0.0
-1.581110517233348e-05 0.0
-1.553841893376319e-05 0.0
-1.5267251187272044e-05 0.0
-1.499755646337656e-05 0.0
-1.4729381955531008e-05 0.0
-1.4462716314115287e-05 0.0
-1.4197577872644369e-05 0.0
-1.3933252875061667e-05 0.0
-1.3670733992444951e-05 0.0
-1.3409715491270992e-05 0.0
-1.3150154152962055e-05 0.0
-1.289209224312299e-05 0.0
-1.2635570927813998e-05 0.0
-1.2380601958893933e-05 0.0
-1.2127180090413278e-05 0.0
-1.1875440941829052e-05 0.0
-1.1625274230239216e-05 0.0
-1.1376859222794973e-05 0.0
-1.1130279472511133e-05 0.0
-1.0885462244559639e-05 0.0
-1.0642455896689566e-05 0.0
-1.040145214372688e-05 0.0
-1.0162237990288569e-05 0.0
-9.924967111141026e-06 0.0
-9.689622561080724e-06 0.0
-9.456275039208589e-06 0.0
-9.224825499431387e-06 0.0
-8.995399329953964e-06 0.0
-8.768049157295726e-06 0.0
-8.542559874679689e-06 0.0
-8.319035289634592e-06 0.0
-8.097480889503979e-06 0.0
-7.877782834541734e-06 0.0
-7.660034464246154e-06 0.0
-7.444163472898857e-06 0.0
-7.230084348180484e-06 0.0
-7.017773504040724e-06 0.0
-6.807340524212475e-06 0.0
-6.598526333527909e-06 0.0
-6.391353576918364e-06 0.0
-6.185855320495351e-06 0.0
-5.9819990091065125e-06 0.0
-5.77963112445188e-06 0.0
-5.578742203166232e-06 0.0
-5.379336857891542e-06 0.0
-5.18141162276605e-06 0.0
-4.984810730553233e-06 0.0
-4.78957697322845e-06 0.0
-4.595606648048736e-06 0.0
-4.4028780092449644e-06 0.0
-4.211537174919921e-06 0.0
-4.021542743447576e-06 0.0
-3.8327792519936495e-06 0.0
-3.645324398352623e-06 0.0
-3.4591338981558816e-06 0.0
-3.2741625858479126e-06 0.0
-3.0904742378034187e-06 0.0
-2.907986615476166e-06 0.0
-2.7268152496886277e-06 0.0
-2.546980587143246e-06 0.0
-2.368421491318981e-06 0.0
-2.191123803855621e-06 0.0
-2.015224591696172e-06 0.0
-1.8407156684050934e-06 0.0
-1.6675383834644677e-06 0.0
-1.495725704623569e-06 0.0
-1.3252621420064223e-06 0.0
-1.1562323111807584e-06 0.0
-9.886321100222123e-07 0.0
-8.223944347800995e-07 0.0
-6.575955458400917e-07 0.0
-4.943603432394451e-07 0.0
-3.3237306208183015e-07 0.0
-1.7188739706100132e-07 0.0
-1.2864067853766509e-08 0.0
1.4467318369789566e-07 0.0
3.008180522976774e-07 0.0
4.5563307041422656e-07 0.0
6.08964820527051e-07 0.0
7.608687909706198e-07 0.0
9.113358236564396e-07 0.0
1.0603642579583416e-06 0.0
1.208194239957868e-06 0.0
1.3546746854263313e-06 0.0
1.499767292114011e-06 0.0
1.6435487226451259e-06 0.0
1.7860837025252762e-06 0.0
1.9272688195767865e-06 0.0
2.0672047863741083e-06 0.0
2.2059316785905152e-06 0.0
2.3434079840191472e-06 0.0
2.479663622673319e-06 0.0
2.6146614643757537e-06 0.0
2.7483525877041896e-06 0.0
2.88081978676738e-06 0.0
3.0121205035980894e-06 0.0
3.1420945101777936e-06 0.0
3.2707859536199733e-06 0.0
3.398090899803003e-06 0.0
3.5241093160968944e-06 0.0
3.648827275806601e-06 0.0
3.7722937170274496e-06 0.0
3.894307841292768e-06 0.0
4.014735038151646e-06 0.0
4.133693024910647e-06 0.0
4.2513093061758465e-06 0.0
4.367368951357967e-06 0.0
4.481918587700099e-06 0.0
4.594841793461957e-06 0.0
4.706142880064954e-06 0.0
4.815699112488063e-06 0.0
4.923496472209532e-06 0.0
5.02961856267417e-06 0.0
5.133808136733982e-06 0.0
5.236136060751105e-06 0.0
5.336526906894534e-06 0.0
5.435062703046846e-06 0.0
5.531702834479984e-06 0.0
5.626396016187281e-06 0.0
5.719040646500959e-06 0.0
5.809550224261132e-06 0.0
5.898271601862022e-06 0.0
5.9848770245434036e-06 0.0
6.069414431687366e-06 0.0
6.1519495807619495e-06 0.0
6.2322631000586155e-06 0.0
6.310781261824881e-06 0.0
6.38731612235727e-06 0.0
6.461799305141334e-06 0.0
6.534268856539532e-06 0.0
6.604927209561885e-06 0.0
6.673588614360619e-06 0.0
6.740334775743061e-06 0.0
6.8051308055115775e-06 0.0
6.868164056642516e-06 0.0
6.9295771803461895e-06 0.0
6.989040132821333e-06 0.0
7.104953920354031e-06 0.0
7.166175996348439e-06 0.0
7.230573024341001e-06 0.0
7.298089666000166e-06 0.0
7.368620460481264e-06 0.0
7.4421565500958475e-06 0.0
7.518556856654544e-06 0.0
7.5975765868459745e-06 0.0
7.679088265405476e-06 0.0
7.762799741762451e-06 0.0
7.84831133018212e-06 0.0
7.935488594898294e-06 0.0
8.023128633160502e-06 0.0
8.11099753080661e-06 0.0
8.197328457389196e-06 0.0
8.279650629387868e-06 0.0
8.353888910351137e-06 0.0
8.417239642710995e-06 0.0
8.462501448932614e-06 0.0
8.486551106661318e-06 0.0
8.482311335246576e-06 0.0
8.444266137689434e-06 0.0
8.367615974188258e-06 0.0
8.259834372574452e-06 0.0
8.118431657592912e-06 0.0
7.949132483615273e-06 0.0
7.745385380801999e-06 0.0
7.493593445242884e-06 0.0
7.172363348915009e-06 0.0
6.7623312273162104e-06 0.0
6.2635416447551105e-06 0.0
5.699656738540761e-06 0.0
5.1019595737935464e-06 0.0
4.483700095267728e-06 0.0
3.8125089532753214e-06 0.0
3.0399237385504933e-06 0.0
2.174476643221349e-06 0.0
1.3243953087758185e-06 0.0
6.621686909982791e-07 0.0
2.5873261787444855e-07 0.0
7.32094204195487e-08 0.0
1.2859613690315472e-08 0.0
1.6787254944842448e-09 0.0
4.0880517114995644e-11 0.0
-1.9844728174533065e-12 0.0
1.6487201418432187e-13 0.0
5.729741954225325e-14 0.0
6.042905740762948e-15 0.0
-2.3050531634434137e-14 0.0
-4.736348208138526e-15 0.0
-1.0182337243722258e-15 0.0
-2.006989484998992e-15 0.0
-1.1841942361751498e-15 0.0
-1.0151782757067316e-15 0.0
-5.417548751663977e-16 0.0
-1.169971606225387e-16 0.0
-1.9713537344475765e-16 0.0
-1.9912567081660737e-16 0.0
1.9055924475216512e-16 0.0
4.96207377290595e-16 0.0
-8.412128218656383e-18 0.0
1.6182541165226157e-16 0.0
7.621961950982418e-16 0.0
-7.886953506432547e-17 0.0
-2.273867177138028e-16 0.0
-5.852116504871947e-16 0.0
-3.6410571419340747e-16 0.0
3.3203590633404866e-16 0.0
-8.180983086272488e-17 0.0
-3.7376451227088404e-16 0.0
5.988755039295171e-16 0.0
8.31878231702656e-16 0.0
-1.8651421503756206e-15 0.0
5.736334165757318e-16 0.0
2.070667465197003e-15 0.0
-1.940584757761226e-15 0.0
5.889977224743823e-17 0.0
1.0138923321712181e-15 0.0
-1.5292144333436073e-15 0.0
0.0 0.009234165287259939
0.0 0.022109785930462318
0.0 0.04006285207145697
0.0 0.06509563926310695
-2.140663620677157e-15 0.1
-2.9961180869131192e-15 0.1
3.4111847207126205e-14 0.1
-3.5640273920367106e-14 0.1
0.0 0.09234095951659034
0.0 0.08526779443703553
0.0 0.0787356878349906
0.0 0.07270325358165597
0.0 0.06713226878991732
0.0 0.06198743331092056
0.0 0.05723615233795769
0.0 0.05284831692952324
0.0 0.048796128449943896
0.0 0.045053910657850665
0.0 0.041597952827123315
0.0 0.03840635724257327
0.0 0.035458901718227694
0.0 0.03273691087333514
0.0 0.030223137736034737
0.0 0.027901654838207984
0.0 0.02575775300196465
0.0 0.02377784835211201
0.0 0.02194939580784334
0.0 0.020260810255806644
0.0 0.01870139222338556
0.0 0.01726126159510557
0.0 0.01593129334046974
0.0 0.014703060286621765
0.0 0.013568780908751354
0.0 0.012521266236493614
0.0 0.011553888507233373
0.0 0.010660478438392065
0.0 0.009835500188044388
0.0 0.009073393077076903
0.0 0.008369982465801886
0.0 0.0077250518017974775
0.0 0.007133564346633753
0.0 0.0065912807640582695
0.0 0.006093883949237159
0.0 0.005638847651506201
0.0 0.005223173531346416
0.0 0.004845581232704123
0.0 0.004502222199355744
0.0 0.004190540272679757
0.0 0.003907451102838666
0.0 0.0036514504980107846
0.0 0.0034206803352766187
0.0 0.0032130039317124323
0.0 0.0030277054549261782
0.0 0.002862261298320692
0.0 0.0027155864664014985
0.0 0.0025867207969834777
0.0 0.0024735267733287367
0.0 0.002375515288153988
0.0 0.0022922803370887383
0.0 0.00222125448125911
0.0 0.0021617246707853655
0.0 0.0021128748891449385
0.0 0.00207267870451977
0.0 0.002040691453478228
0.0 0.002015583311787284
0.0 0.0019966728142355845
0.0 0.0019823278296427632
0.0 0.0019718206054897417
0.0 0.0019640720404409465
0.0 0.001958669907486052
0.0 0.0019554144106379997
0.0 0.0019524765640689251
0.0 0.001950843806974194
0.0 0.0019486890299409804
0.0 0.0019471399788333638
0.0 0.0019455978248004687
0.0 0.0019438746139831006
0.0 0.0019420233817484577
0.0 0.0019398890153652017
0.0 0.0019376485047337226
0.0 0.0019352060617064632
0.0 0.0019326536993527696
0.0 0.0019299396831246442
0.0 0.001927227322670454
0.0 0.0019244799441735436
0.0 0.0019217293540063024
0.0 0.0019190128687973423
0.0 0.0019163325429557374
0.0 0.0019137882484828405
0.0 0.0019112972742465063
0.0 0.0019089050319456087
7.1034629944051054e-06 0.004933209940939792
7.27888534484956e-05 0.002824363295620197
0.00012002687913838224 0.0017639103084406958
0.00016104643101525886 0.0014693251616779022
2.9742261673724455e-05 0.0014192982020929468
1.873831519763819e-05 0.002260821413559297