# vtk DataFile Version 3.0
Some data
ASCII
DATASET UNSTRUCTURED_GRID
POINTS 7930 float
0.0 0.0 0.0
0.0 10.0 0.0
10.0 10.0 0.0
10.0 0.0 0.0
0.5 0.0 0.0
0.0009999999999981016 0.0 0.0
0.001999999999996203 0.0 0.0
0.002999999999994305 0.0 0.0
0.003999999999992409 0.0 0.0
0.004999999999990531 0.0 0.0
0.005999999999988653 0.0 0.0
0.006999999999986775 0.0 0.0
0.007999999999984898 0.0 0.0
0.008999999999983018 0.0 0.0
0.009999999999981142 0.0 0.0
0.01099999999997926 0.0 0.0
0.01199999999997736 0.0 0.0
0.0129999999999754 0.0 0.0
0.01399999999997343 0.0 0.0
0.01499999999997147 0.0 0.0
0.01599999999996944 0.0 0.0
0.0169999999999673 0.0 0.0
0.01799999999996516 0.0 0.0
0.01899999999996302 0.0 0.0
0.01999999999996084 0.0 0.0
0.02099999999995862 0.0 0.0
0.02199999999995639 0.0 0.0
0.02299999999995417 0.0 0.0
0.02399999999995195 0.0 0.0
0.02499999999994972 0.0 0.0
0.0259999999999475 0.0 0.0
0.02699999999994527 0.0 0.0
0.02799999999994315 0.0 0.0
0.0289999999999411 0.0 0.0
0.02999999999993905 0.0 0.0
0.030999999999937 0.0 0.0
0.03199999999993521 0.0 0.0
0.0329999999999335 0.0 0.0
0.0339999999999318 0.0 0.0
0.03499999999993009 0.0 0.0
0.03599999999992853 0.0 0.0
0.036999999999927 0.0 0.0
0.03799999999992547 0.0 0.0
0.03899999999992394 0.0 0.0
0.03999999999992241 0.0 0.0
0.04099999999992088 0.0 0.0
0.04199999999991934 0.0 0.0
0.04299999999991782 0.0 0.0
0.04399999999991629 0.0 0.0
0.04499999999991475 0.0 0.0
0.04599999999991322 0.0 0.0
0.0469999999999117 0.0 0.0
0.04799999999991016 0.0 0.0
0.04899999999990863 0.0 0.0
0.0499999999999071 0.0 0.0
0.05099999999990557 0.0 0.0
0.05199999999990404 0.0 0.0
0.05299999999990251 0.0 0.0
0.05399999999990097 0.0 0.0
0.05499999999989943 0.0 0.0
0.05599999999989791 0.0 0.0
0.05699999999989638 0.0 0.0
0.05799999999989484 0.0 0.0
0.05899999999989317 0.0 0.0
0.05999999999989129 0.0 0.0
0.06099999999988941 0.0 0.0
0.06199999999988753 0.0 0.0
0.06299999999988531 0.0 0.0
0.06399999999988273 0.0 0.0
0.06499999999988015 0.0 0.0
0.06599999999987759 0.0 0.0
0.0669999999998748 0.0 0.0
0.06799999999987189 0.0 0.0
0.06899999999986897 0.0 0.0
0.06999999999986604 0.0 0.0
0.07099999999986313 0.0 0.0
0.0719999999998602 0.0 0.0
0.07299999999985729 0.0 0.0
0.07399999999985438 0.0 0.0
0.07499999999985145 0.0 0.0
0.07599999999984854 0.0 0.0
0.07699999999984562 0.0 0.0
0.0779999999998427 0.0 0.0
0.07899999999983978 0.0 0.0
0.07999999999983685 0.0 0.0
0.08099999999983394 0.0 0.0
0.08199999999983103 0.0 0.0
0.0829999999998281 0.0 0.0
0.08399999999982519 0.0 0.0
0.08499999999982226 0.0 0.0
0.08599999999981935 0.0 0.0
0.08699999999981643 0.0 0.0
0.0879999999998135 0.0 0.0
0.08899999999981059 0.0 0.0
0.08999999999980766 0.0 0.0
0.09099999999980475 0.0 0.0
0.09199999999980184 0.0 0.0
0.09299999999979891 0.0 0.0
0.093999999999796 0.0 0.0
0.09499999999979307 0.0 0.0
0.09599999999979016 0.0 0.0
0.09699999999978724 0.0 0.0
0.09799999999978432 0.0 0.0
0.0989999999997814 0.0 0.0
0.09999999999977847 0.0 0.0
0.1009999999997756 0.0 0.0
0.1019999999997726 0.0 0.0
0.1029999999997697 0.0 0.0
0.1039999999997668 0.0 0.0
0.1049999999997639 0.0 0.0
0.105999999999761 0.0 0.0
0.106999999999758 0.0 0.0
0.1079999999997551 0.0 0.0
0.1089999999997522 0.0 0.0
0.1099999999997493 0.0 0.0
0.1109999999997464 0.0 0.0
0.1119999999997434 0.0 0.0
0.1129999999997405 0.0 0.0
0.1139999999997376 0.0 0.0
0.1149999999997347 0.0 0.0
0.1159999999997318 0.0 0.0
0.1169999999997288 0.0 0.0
0.1179999999997259 0.0 0.0
0.118999999999723 0.0 0.0
0.1199999999997201 0.0 0.0
0.1209999999997172 0.0 0.0
0.1219999999997143 0.0 0.0
0.1229999999997113 0.0 0.0
0.1239999999997084 0.0 0.0
0.1249999999997055 0.0 0.0
0.1259999999997026 0.0 0.0
0.1269999999996997 0.0 0.0
0.1279999999996967 0.0 0.0
0.1289999999996938 0.0 0.0
0.1299999999996909 0.0 0.0
0.130999999999688 0.0 0.0
0.1319999999996851 0.0 0.0
0.1329999999996822 0.0 0.0
0.1339999999996792 0.0 0.0
0.1349999999996764 0.0 0.0
0.1359999999996734 0.0 0.0
0.1369999999996705 0.0 0.0
0.1379999999996676 0.0 0.0
0.1389999999996647 0.0 0.0
0.1399999999996618 0.0 0.0
0.1409999999996588 0.0 0.0
0.1419999999996559 0.0 0.0
0.142999999999653 0.0 0.0
0.1439999999996501 0.0 0.0
0.1449999999996472 0.0 0.0
0.1459999999996442 0.0 0.0
0.1469999999996414 0.0 0.0
0.1479999999996384 0.0 0.0
0.1489999999996355 0.0 0.0
0.1499999999996326 0.0 0.0
0.1509999999996297 0.0 0.0
0.1519999999996268 0.0 0.0
0.1529999999996239 0.0 0.0
0.1539999999996209 0.0 0.0
0.154999999999618 0.0 0.0
0.1559999999996151 0.0 0.0
0.1569999999996122 0.0 0.0
0.1579999999996093 0.0 0.0
0.1589999999996064 0.0 0.0
0.1599999999996035 0.0 0.0
0.1609999999996005 0.0 0.0
0.1619999999995976 0.0 0.0
0.1629999999995947 0.0 0.0
0.1639999999995918 0.0 0.0
0.1649999999995889 0.0 0.0
0.165999999999586 0.0 0.0
0.1669999999995831 0.0 0.0
0.1679999999995801 0.0 0.0
0.1689999999995772 0.0 0.0
0.1699999999995743 0.0 0.0
0.1709999999995714 0.0 0.0
0.1719999999995685 0.0 0.0
0.1729999999995655 0.0 0.0
0.1739999999995626 0.0 0.0
0.1749999999995597 0.0 0.0
0.1759999999995568 0.0 0.0
0.1769999999995539 0.0 0.0
0.177999999999551 0.0 0.0
0.178999999999548 0.0 0.0
0.1799999999995451 0.0 0.0
0.1809999999995422 0.0 0.0
0.1819999999995393 0.0 0.0
0.1829999999995364 0.0 0.0
0.1839999999995335 0.0 0.0
0.1849999999995305 0.0 0.0
0.1859999999995277 0.0 0.0
0.1869999999995247 0.0 0.0
0.1879999999995218 0.0 0.0
0.1889999999995189 0.0 0.0
0.189999999999516 0.0 0.0
0.1909999999995131 0.0 0.0
0.1919999999995101 0.0 0.0
0.1929999999995072 0.0 0.0
0.1939999999995043 0.0 0.0
0.1949999999995014 0.0 0.0
0.1959999999994985 0.0 0.0
0.1969999999994956 0.0 0.0
0.1979999999994927 0.0 0.0
0.1989999999994897 0.0 0.0
0.1999999999994868 0.0 0.0
0.2009999999994839 0.0 0.0
0.201999999999481 0.0 0.0
0.2029999999994781 0.0 0.0
0.2039999999994752 0.0 0.0
0.2049999999994722 0.0 0.0
0.2059999999994693 0.0 0.0
0.2069999999994664 0.0 0.0
0.2079999999994635 0.0 0.0
0.2089999999994606 0.0 0.0
0.2099999999994577 0.0 0.0
0.2109999999994548 0.0 0.0
0.2119999999994518 0.0 0.0
0.2129999999994489 0.0 0.0
0.213999999999446 0.0 0.0
0.2149999999994431 0.0 0.0
0.2159999999994402 0.0 0.0
0.2169999999994373 0.0 0.0
0.2179999999994343 0.0 0.0
0.2189999999994314 0.0 0.0
0.2199999999994285 0.0 0.0
0.2209999999994256 0.0 0.0
0.2219999999994227 0.0 0.0
0.2229999999994198 0.0 0.0
0.2239999999994168 0.0 0.0
0.2249999999994139 0.0 0.0
0.225999999999411 0.0 0.0
0.2269999999994081 0.0 0.0
0.2279999999994052 0.0 0.0
0.2289999999994023 0.0 0.0
0.2299999999993994 0.0 0.0
0.2309999999993964 0.0 0.0
0.2319999999993935 0.0 0.0
0.2329999999993906 0.0 0.0
0.2339999999993877 0.0 0.0
0.2349999999993848 0.0 0.0
0.2359999999993818 0.0 0.0
0.236999999999379 0.0 0.0
0.237999999999376 0.0 0.0
0.2389999999993731 0.0 0.0
0.2399999999993702 0.0 0.0
0.2409999999993673 0.0 0.0
0.2419999999993644 0.0 0.0
0.2429999999993615 0.0 0.0
0.2439999999993585 0.0 0.0
0.2449999999993556 0.0 0.0
0.2459999999993527 0.0 0.0
0.246999999999351 0.0 0.0
0.2479999999993495 0.0 0.0
0.248999999999348 0.0 0.0
0.2499999999993464 0.0 0.0
0.2509999999993477 0.0 0.0
0.2519999999993489 0.0 0.0
0.2529999999993502 0.0 0.0
0.2539999999993516 0.0 0.0
0.2549999999993542 0.0 0.0
0.2559999999993569 0.0 0.0
0.2569999999993595 0.0 0.0
0.2579999999993621 0.0 0.0
0.2589999999993647 0.0 0.0
0.2599999999993673 0.0 0.0
0.26099999999937 0.0 0.0
0.2619999999993726 0.0 0.0
0.2629999999993753 0.0 0.0
0.2639999999993779 0.0 0.0
0.2649999999993806 0.0 0.0
0.2659999999993832 0.0 0.0
0.2669999999993858 0.0 0.0
0.2679999999993884 0.0 0.0
0.2689999999993911 0.0 0.0
0.2699999999993937 0.0 0.0
0.2709999999993963 0.0 0.0
0.271999999999399 0.0 0.0
0.2729999999994017 0.0 0.0
0.2739999999994043 0.0 0.0
0.2749999999994069 0.0 0.0
0.2759999999994096 0.0 0.0
0.2769999999994122 0.0 0.0
0.2779999999994148 0.0 0.0
0.2789999999994174 0.0 0.0
0.2799999999994201 0.0 0.0
0.2809999999994228 0.0 0.0
0.2819999999994254 0.0 0.0
0.282999999999428 0.0 0.0
0.2839999999994306 0.0 0.0
0.2849999999994333 0.0 0.0
0.2859999999994359 0.0 0.0
0.2869999999994385 0.0 0.0
0.2879999999994411 0.0 0.0
0.2889999999994439 0.0 0.0
0.2899999999994465 0.0 0.0
0.2909999999994491 0.0 0.0
0.2919999999994517 0.0 0.0
0.2929999999994544 0.0 0.0
0.293999999999457 0.0 0.0
0.2949999999994596 0.0 0.0
0.2959999999994622 0.0 0.0
0.2969999999994649 0.0 0.0
0.2979999999994676 0.0 0.0
0.2989999999994702 0.0 0.0
0.2999999999994728 0.0 0.0
0.3009999999994754 0.0 0.0
0.3019999999994781 0.0 0.0
0.3029999999994807 0.0 0.0
0.3039999999994834 0.0 0.0
0.304999999999486 0.0 0.0
0.3059999999994886 0.0 0.0
0.3069999999994913 0.0 0.0
0.3079999999994939 0.0 0.0
0.3089999999994965 0.0 0.0
0.3099999999994992 0.0 0.0
0.3109999999995018 0.0 0.0
0.3119999999995045 0.0 0.0
0.3129999999995071 0.0 0.0
0.3139999999995097 0.0 0.0
0.3149999999995123 0.0 0.0
0.315999999999515 0.0 0.0
0.3169999999995176 0.0 0.0
0.3179999999995203 0.0 0.0
0.3189999999995229 0.0 0.0
0.3199999999995256 0.0 0.0
0.3209999999995282 0.0 0.0
0.3219999999995308 0.0 0.0
0.3229999999995334 0.0 0.0
0.323999999999536 0.0 0.0
0.3249999999995387 0.0 0.0
0.3259999999995414 0.0 0.0
0.326999999999544 0.0 0.0
0.3279999999995466 0.0 0.0
0.3289999999995493 0.0 0.0
0.3299999999995519 0.0 0.0
0.3309999999995545 0.0 0.0
0.3319999999995571 0.0 0.0
0.3329999999995598 0.0 0.0
0.3339999999995625 0.0 0.0
0.3349999999995651 0.0 0.0
0.3359999999995677 0.0 0.0
0.3369999999995703 0.0 0.0
0.337999999999573 0.0 0.0
0.3389999999995756 0.0 0.0
0.3399999999995783 0.0 0.0
0.3409999999995809 0.0 0.0
0.3419999999995835 0.0 0.0
0.3429999999995862 0.0 0.0
0.3439999999995888 0.0 0.0
0.3449999999995914 0.0 0.0
0.345999999999594 0.0 0.0
0.3469999999995967 0.0 0.0
0.3479999999995994 0.0 0.0
0.348999999999602 0.0 0.0
0.3499999999996046 0.0 0.0
0.3509999999996072 0.0 0.0
0.3519999999996099 0.0 0.0
0.3529999999996125 0.0 0.0
0.3539999999996151 0.0 0.0
0.3549999999996178 0.0 0.0
0.3559999999996205 0.0 0.0
0.3569999999996231 0.0 0.0
0.3579999999996257 0.0 0.0
0.3589999999996283 0.0 0.0
0.359999999999631 0.0 0.0
0.3609999999996336 0.0 0.0
0.3619999999996362 0.0 0.0
[...]
POINT_DATA 7930
SCALARS Disp float 2
LOOKUP_TABLE default
0.0 0.0006240825415219439
0.0 0.1
0.0 0.1
0.0 0.0
9.072361144316352e-16 0.0
-6.7893380462466125e-06 0.0006237079041324649
-1.3608615940285427e-05 0.0006229450271316746
-2.047271313454337e-05 0.0006212713614076804
-2.727210315236503e-05 0.0006179956036139791
-3.366956682016124e-05 0.0006144657030891087
-4.049930865552554e-05 0.0006119292688299498
-4.795115989411603e-05 0.0006078032895564817
-5.492634639421614e-05 0.0006008123644276653
-6.128333756149623e-05 0.0005935618275830262
-6.778677286454725e-05 0.0005878240361184624
-7.507105387157474e-05 0.0005809791095983968
-8.233713479838037e-05 0.0005706721152714813
-8.850548848773565e-05 0.0005596256309790133
-9.498376187365452e-05 0.0005504995984206329
-0.00010266625265429645 0.0005402993764280548
-0.00010974065932584573 0.0005257492741028559
-0.00011610568128133258 0.0005099864794030904
-0.00012234815655900877 0.0004960572929889911
-0.0001301045712009323 0.0004809104934849499
-0.0001373147781464171 0.00046080065602866805
-0.00014353730623096783 0.0004382492048728103
-0.00014947339683790353 0.0004178122820888155
-0.00015665079338147078 0.00039587087706717593
-0.00016411687732568303 0.00036698924703340384
-0.00017005162360958457 0.0003337117491188869
-0.00017640024441444867 0.0002996219573859795
-0.00018252294656508983 0.00026099826451527613
-0.00019001817311471535 0.00020652538626654164
-0.00019053776509142425 0.00013364140397124986
-0.00017378722474482028 0.0
-0.00015284814788415276 0.0
-0.00013484436733884116 0.0
-0.00012339398574566572 0.0
-0.00011472913563220332 0.0
-0.00010723810247084891 0.0
-0.00010084150943144293 0.0
-9.540090266744746e-05 0.0
-9.051461359460889e-05 0.0
-8.616636349696361e-05 0.0
-8.219610215367946e-05 0.0
-7.8579712223853e-05 0.0
-7.525628680197369e-05 0.0
-7.214175343367156e-05 0.0
-6.923179846064546e-05 0.0
-6.65375804189291e-05 0.0
-6.401192440224088e-05 0.0
-6.166113279310516e-05 0.0
-5.944677294644076e-05 0.0
-5.735415089680479e-05 0.0
-5.536716857869795e-05 0.0
-5.348896058149217e-05 0.0
-5.171432486752788e-05 0.0
-5.0029513830672745e-05 0.0
-4.837748246736366e-05 0.0
-4.682852666461812e-05 0.0
-4.535250213590998e-05 0.0
-4.3941713804945956e-05 0.0
-4.258483383097811e-05 0.0
-4.128620415753721e-05 0.0
-4.003714492722073e-05 0.0
-3.882948833035236e-05 0.0
-3.7667672634615985e-05 0.0
-3.6547521912272475e-05 0.0
-3.5463649000623516e-05 0.0
-3.441881818503798e-05 0.0
-3.3410970634208574e-05 0.0
-3.243419754119755e-05 0.0
-3.1488133279636704e-05 0.0
-3.0574058404249355e-05 0.0
-2.9690231752191702e-05 0.0
-2.8831218785783858e-05 0.0
-2.799794638462628e-05 0.0
-2.7188699324711737e-05 0.0
-2.6399700245286753e-05 0.0
-2.5633279518464923e-05 0.0
-2.488822820267962e-05 0.0
-2.4162677765200873e-05 0.0
-2.345589218295273e-05 0.0
-2.2764889816361494e-05 0.0
-2.209136790001252e-05 0.0
-2.1434284123226745e-05 0.0
-2.0791835881328094e-05 0.0
-2.016396930384437e-05 0.0
-1.9551983463906825e-05 0.0
-1.8952330885735272e-05 0.0
-1.8365751642995835e-05 0.0
-1.779357277168885e-05 0.0
-1.7234925370738655e-05 0.0
-1.6690123523816404e-05 0.0
-1.6157574797142634e-05 0.0
-1.5638222256869926e-05 0.0
-1.5131424079521526e-05 0.0
-1.4636694938279074e-05 0.0
-1.415418817311771e-05 0.0
-1.3684215665677189e-05 0.0
-1.3226223845373335e-05 0.0
-1.277884596934929e-05 0.0
-1.23429027386892e-05 0.0
-1.1917079051491032e-05 0.0
-1.1501564973926614e-05 0.0
-1.1096089883853378e-05 0.0
-1.0700523321710401e-05 0.0
-1.0314269075999322e-05 0.0
-9.936977583416733e-06 0.0
-9.568238284051386e-06 0.0
-9.206046672701758e-06 0.0
-8.852416487979995e-06 0.0
-8.507293490363555e-06 0.0
-8.165865432034088e-06 0.0
-7.832128030558463e-06 0.0
-7.5047992148408035e-06 0.0
-7.182639292774223e-06 0.0
-6.866193654435924e-06 0.0
-6.555179104387475e-06 0.0
-6.24898165848855e-06 0.0
-5.947996263014702e-06 0.0
-5.652288396806853e-06 0.0
-5.361629229427248e-06 0.0
-5.076931829977189e-06 0.0
-4.7951231281068465e-06 0.0
-4.519050019784695e-06 0.0
-4.247643830805202e-06 0.0
-3.981937093088584e-06 0.0
-3.72056924746819e-06 0.0
-3.4645019801474833e-06 0.0
-3.213837996159432e-06 0.0
-2.9687967336868397e-06 0.0
-2.728927284630538e-06 0.0
-2.4947369337851107e-06 0.0
-2.2660823526450403e-06 0.0
-2.04331258520278e-06 0.0
-1.8263332431670933e-06 0.0
-1.6155617195009833e-06 0.0
-1.411190377453664e-06 0.0
-1.2118242981896217e-06 0.0
-1.0185730939816186e-06 0.0
-8.315592649190479e-07 0.0
-6.504894247709374e-07 0.0
-4.752433568809161e-07 0.0
-3.0590515630510235e-07 0.0
-1.4255388988620792e-07 0.0
1.5000616194319754e-08 0.0
1.667625048979598e-07 0.0
3.1307086101603463e-07 0.0
4.538594233429053e-07 0.0
5.888432286583398e-07 0.0
7.184308452645298e-07 0.0
8.4326724500095e-07 0.0
9.631899295156414e-07 0.0
1.0778127732285436e-06 0.0
1.187702466484978e-06 0.0
1.2927309610506713e-06 0.0
1.3932617220209752e-06 0.0
1.489600728344016e-06 0.0
1.5813965496132217e-06 0.0
1.66915910581282e-06 0.0
1.7518620394889343e-06 0.0
1.8318181795330223e-06 0.0
1.907368934501338e-06 0.0
1.9789077117527463e-06 0.0
2.046899117225221e-06 0.0
2.1107787670116255e-06 0.0
2.1721892546350396e-06 0.0
2.2295759981948893e-06 0.0
2.283282983498476e-06 0.0
2.333807051881734e-06 0.0
2.3809880123761397e-06 0.0
2.4251409695467684e-06 0.0
2.466108914600644e-06 0.0
2.503888419068994e-06 0.0
2.5387360962491408e-06 0.0
2.5703296935855045e-06 0.0
2.5989927642929053e-06 0.0
2.6248237033920254e-06 0.0
2.647712804796105e-06 0.0
2.66759318860473e-06 0.0
2.6845829770930496e-06 0.0
2.6989518488666144e-06 0.0
2.710507951962244e-06 0.0
2.719239260587441e-06 0.0
2.7254264683014527e-06 0.0
2.728897295541804e-06 0.0
2.729649380623631e-06 0.0
2.7280082488405987e-06 0.0
2.7239994374704722e-06 0.0
2.717438004334185e-06 0.0
2.708530936345641e-06 0.0
2.6972394036203425e-06 0.0
2.683596230576269e-06 0.0
2.6678797705929663e-06 0.0
2.650034759294446e-06 0.0
2.6300846720025304e-06 0.0
2.608160057681728e-06 0.0
2.5843319551288083e-06 0.0
2.5585403555267064e-06 0.0
2.5310212727659313e-06 0.0
2.5018926174181886e-06 0.0
2.4710747789658337e-06 0.0
2.4388153880530215e-06 0.0
2.405076290661317e-06 0.0
2.3700178520773122e-06 0.0
2.3337624313421308e-06 0.0
2.2962621024603403e-06 0.0
2.2576562967291076e-06 0.0
2.21808628038458e-06 0.0
2.177624073514852e-06 0.0
2.136340528017047e-06 0.0
2.0943505384420124e-06 0.0
2.0517270045054355e-06 0.0
2.0085340783462722e-06 0.0
1.964858292311197e-06 0.0
1.9208092268558888e-06 0.0
1.8764541374681093e-06 0.0
1.8318576569980785e-06 0.0
1.7871191046660026e-06 0.0
1.7423013069475039e-06 0.0
1.6974777064791158e-06 0.0
1.6527089539214908e-06 0.0
1.6080684186293968e-06 0.0
1.5636179170409947e-06 0.0
1.5194217144435111e-06 0.0
1.4755332647294367e-06 0.0
1.4320034129261516e-06 0.0
1.3888866331922916e-06 0.0
1.3462285331711665e-06 0.0
1.304091687999713e-06 0.0
1.2624965745674433e-06 0.0
1.2214833527983021e-06 0.0
1.1810931871771258e-06 0.0
1.1413294918873618e-06 0.0
1.102274241736556e-06 0.0
1.063954188951141e-06 0.0
1.026349657804267e-06 0.0
9.895160937756622e-07 0.0
9.534785069512143e-07 0.0
9.182216913373177e-07 0.0
8.837662009581738e-07 0.0
8.501477290993287e-07 0.0
8.173585685323759e-07 0.0
7.853945339568086e-07 0.0
7.542848188751383e-07 0.0
7.240324172955797e-07 0.0
6.9458699275071e-07 0.0
6.660008943295302e-07 0.0
6.382810212446987e-07 0.0
6.113668147098827e-07 0.0
5.853167464302517e-07 0.0
5.600878471505278e-07 0.0
5.356754899593396e-07 0.0
5.120879007122718e-07 0.0
4.892823650348556e-07 0.0
4.672644805311214e-07 0.0
4.4605291804944777e-07 0.0
4.2557094353991315e-07 0.0
4.0582856102629947e-07 0.0
3.868183316657501e-07 0.0
3.685393253929559e-07 0.0
3.5096836000118733e-07 0.0
3.3408677983016504e-07 0.0
3.178698256726196e-07 0.0
3.023076822914056e-07 0.0
2.873797087206016e-07 0.0
2.7308067384439445e-07 0.0
2.5937509287313556e-07 0.0
2.4624133216826307e-07 0.0
2.336753222856751e-07 0.0
2.2166077622821995e-07 0.0
2.1016551488818847e-07 0.0
1.9923963193565675e-07 0.0
1.8870831645674188e-07 0.0
1.787060293458199e-07 0.0
1.691560984482291e-07 0.0
1.6005743490779494e-07 0.0
1.5138641862654634e-07 0.0
1.4312352871780784e-07 0.0
1.3526567855140475e-07 0.0
1.2779016858124966e-07 0.0
1.206759541398002e-07 0.0
1.1391683357997716e-07 0.0
1.0748381312187185e-07 0.0
1.0138666101229887e-07 0.0
9.560989305639412e-08 0.0
9.01181935946286e-08 0.0
8.491207611003465e-08 0.0
7.997358603343446e-08 0.0
7.529480102675766e-08 0.0
7.086951829718863e-08 0.0
6.667783473304884e-08 0.0
6.271380766690147e-08 0.0
5.8965268070294e-08 0.0
5.541780678618576e-08 0.0
5.205983855488722e-08 0.0
4.889877026023658e-08 0.0
4.591167194715671e-08 0.0
4.309193289247647e-08 0.0
4.043087442737973e-08 0.0
3.7921752030976856e-08 0.0
3.555706474580242e-08 0.0
3.332855561350122e-08 0.0
3.123051714328131e-08 0.0
2.9253487608040623e-08 0.0
2.739443604607584e-08 0.0
2.5645215168604798e-08 0.0
2.4000415793739884e-08 0.0
2.2454849660337158e-08 0.0
2.100225055681702e-08 0.0
1.9637237104917844e-08 0.0
1.835511644276683e-08 0.0
1.715001821263832e-08 0.0
1.6020281719234364e-08 0.0
1.4961548518674954e-08 0.0
1.3968206300150174e-08 0.0
1.3036192241140528e-08 0.0
1.216290194455549e-08 0.0
1.1344283714750723e-08 0.0
1.0577561134845416e-08 0.0
9.861432833842256e-09 0.0
9.191860038441499e-09 0.0
8.565294235622886e-09 0.0
7.977255610476047e-09 0.0
7.427905319768189e-09 0.0
6.915191867743329e-09 0.0
6.4346008339201155e-09 0.0
5.98608164237198e-09 0.0
5.5683125116948385e-09 0.0
5.176991733401524e-09 0.0
4.812918117898589e-09 0.0
4.473099725429969e-09 0.0
4.156146278314344e-09 0.0
3.8613925618358305e-09 0.0
3.5861319150718636e-09 0.0
3.3296464695412268e-09 0.0
3.0906910406569786e-09 0.0
2.8683370653825525e-09 0.0
2.661224594583462e-09 0.0
2.468385996604506e-09 0.0
2.2888433077905255e-09 0.0
2.1216712485677332e-09 0.0
1.9664339289684906e-09 0.0
1.822089615310917e-09 0.0
1.687933534728362e-09 0.0
1.5631738768101548e-09 0.0
1.4472674426914342e-09 0.0
1.3397199939508296e-09 0.0
1.240248912554126e-09 0.0
1.1474983887507965e-09 0.0
1.0616474006522594e-09 0.0
9.818350239819692e-10 0.0
9.075906346545246e-10 0.0
8.390052134585844e-10 0.0
7.756710286070649e-10 0.0
7.166834340246644e-10 0.0
6.621255939551324e-10 0.0
6.114962070684179e-10 0.0
5.646410740116161e-10 0.0
5.214748138272669e-10 0.0
4.812929886924604e-10 0.0
4.4416188603932676e-10 0.0
4.097900696913954e-10 0.0
3.778937010469829e-10 0.0
3.484815922395201e-10 0.0
3.2133959659184126e-10 0.0
2.961935295594176e-10 0.0
2.7297412046730973e-10 0.0
2.5152746489374326e-10 0.0
2.317077566304666e-10 0.0
2.134226623454445e-10 0.0
1.9654521178586234e-10 0.0
1.8095625138761984e-10 0.0
1.6656904001372976e-10 0.0
1.5327632964190467e-10 0.0
1.410306524709934e-10 0.0
1.297458406008165e-10 0.0
1.1933852706502137e-10 0.0
1.0974940105550822e-10 0.0
1.0090920914836024e-10 0.0
9.277787305777256e-11 0.0
8.528214685529596e-11 0.0
7.834246039878387e-11 0.0
7.197032640206314e-11 0.0
6.613333657085781e-11 0.0
6.073572014559075e-11 0.0
5.5747170067117224e-11 0.0
5.118250785981372e-11 0.0
4.699124681272354e-11 0.0
4.3125760815706666e-11 0.0
3.956763924861955e-11 0.0
3.6298492288282746e-11 0.0
3.328289679748936e-11 0.0
3.052064742676917e-11 0.0
2.7992762153295832e-11 0.0
2.566025443347631e-11 0.0
2.3516747288786174e-11 0.0
2.1550506200675956e-11 0.0
1.9735679860987052e-11 0.0
1.8078801039527455e-11 0.0
1.655897079020183e-11 0.0
1.516222926501402e-11 0.0
1.3884305705579017e-11 0.0
1.2713049837123457e-11 0.0
1.16350314459196e-11 0.0
1.064640508180984e-11 0.0
9.740710564672253e-12 0.0
8.911382160939371e-12 0.0
8.150964978054837e-12 0.0
7.454125248335164e-12 0.0
6.81584287325916e-12 0.0
6.231672738486559e-12 0.0
5.696437860063692e-12 0.0
5.206479579042853e-12 0.0
4.75750357548789e-12 0.0
4.345986114267722e-12 0.0
3.9698256829103554e-12 0.0
3.6257905795458603e-12 0.0
3.311002911610204e-12 0.0
3.0233549325791967e-12 0.0
2.7603296826185047e-12 0.0
2.519461934051863e-12 0.0
2.2994442892520685e-12 0.0
2.0980725345117042e-12 0.0
1.914074844456375e-12 0.0
1.7461813776483556e-12 0.0
1.5927751284160445e-12 0.0
1.4520169493587195e-12 0.0
1.3240640521532081e-12 0.0
1.207171873195151e-12 0.0
1.1006050699877561e-12 0.0
1.0031140112920262e-12 0.0
9.141001910965327e-13 0.0
8.328882176274872e-13 0.0
7.587692924371869e-13 0.0
6.910925838329807e-13 0.0
6.292846194547743e-13 0.0
5.729410119672714e-13 0.0
5.216406806519561e-13 0.0
4.748563947689153e-13 0.0
4.322082344658675e-13 0.0
3.9337273435666963e-13 0.0
3.5798761124377504e-13 0.0
3.2559676617562067e-13 0.0
2.9618816883606326e-13 0.0
2.6942576716692603e-13 0.0
2.4506723672328236e-13 0.0
2.2285380066998088e-13 0.0
2.026613033544736e-13 0.0
1.8418034228517186e-13 0.0
1.6743989936503998e-13 0.0
1.5219235768099434e-13 0.0
1.3830395583749806e-13 0.0
1.2568350715039282e-13 0.0
1.141937552660503e-13 0.0
1.0372638763527032e-13 0.0
9.420652881068418e-14 0.0
8.554614176994112e-14 0.0
7.766978502690693e-14 0.0
7.053979658354214e-14 0.0
6.401816726557477e-14 0.0
5.810750078038841e-14 0.0
5.27324129373197e-14 0.0
4.7852742226295206e-14 0.0
4.342617394801189e-14 0.0
3.940438166347285e-14 0.0
3.574314010254263e-14 0.0
3.2406908984240066e-14 0.0
2.938655072870952e-14 0.0
2.6659508567321052e-14 0.0
2.418681545697723e-14 0.0
2.192410158363713e-14 0.0
1.9874793862575864e-14 0.0
1.8011737365507363e-14 0.0
1.6322478712288035e-14 0.0
1.4788789246862313e-14 0.0
1.3399375085056321e-14 0.0
1.213938214779566e-14 0.0
1.0992642851812766e-14 0.0
9.956595739112284e-15 0.0
9.018335561425595e-15 0.0
8.169733220260512e-15 0.0
7.398345589434784e-15 0.0
6.698523091201133e-15 0.0
6.0636916420438134e-15 0.0
5.489262826201062e-15 0.0
4.971843858262034e-15 0.0
4.49916888939004e-15 0.0
4.071944157848135e-15 0.0
3.685325673008002e-15 0.0
3.3346126709303812e-15 0.0
3.0188480903879875e-15 0.0
2.7313450713124727e-15 0.0
2.4707007091052637e-15 0.0
2.2354683711899674e-15 0.0
2.0227470369527764e-15 0.0
1.8295824052435336e-15 0.0
1.6551149025061794e-15 0.0
1.4972999662198889e-15 0.0
1.3548304869242626e-15 0.0
1.2256805133729581e-15 0.0
1.1082243687312558e-15 0.0
1.0027100470853967e-15 0.0
8.177580199165988e-16 0.0
7.306551694020895e-16 0.0
6.463657143196558e-16 0.0
5.657497660845902e-16 0.0
4.896751904793834e-16 0.0
4.1862587564762523e-16 0.0
3.532053767492312e-16 0.0
2.9397133670977903e-16 0.0
2.4114676979395217e-16 0.0
1.948777789150993e-16 0.0
1.5526885941833902e-16 0.0
1.218691502898694e-16 0.0
9.463551942952708e-17 0.0
7.281608127943648e-17 0.0
5.58603902398842e-17 0.0
4.335420635101868e-17 0.0
3.4365684448507605e-17 0.0
2.7939486335627003e-17 0.0
2.3567801166828652e-17 0.0
2.0632700762627135e-17 0.0
1.885162502152144e-17 0.0
1.803267795196783e-17 0.0
1.781816462892811e-17 0.0
1.7391497977564195e-17 0.0
1.6030231666760042e-17 0.0
1.4203147741580152e-17 0.0
1.2859783368063318e-17 0.0
1.2229186840802777e-17 0.0
1.1045698339290534e-17 0.0
1.0510980582514008e-17 0.0
1.1216377039842764e-17 0.0
1.2926659789791529e-17 0.0
1.518931365814497e-17 0.0
1.456325268450657e-17 0.0
1.47754089853328e-17 0.0
1.8146623331440712e-17 0.0
2.1736772069127177e-17 0.0
2.5445676932814338e-17 0.0
2.861093953966757e-17 0.0
3.10853127300508e-17 0.0
2.1136771792920208e-17 0.0
1.1993371988655599e-17 0.0
7.782302190488036e-18 0.0
1.3486859176675826e-17 0.0
4.382071704612872e-17 0.0
4.549503439284818e-17 0.0
3.2484290576723467e-17 0.0
4.130892333486977e-17 0.0
3.2191229752458615e-17 0.0
2.885451654582511e-17 0.0
3.442277753986451e-17 0.0
3.9811180557527873e-17 0.0
2.2605277308979913e-17 0.0
4.158257494381317e-17 0.0
1.810249617204061e-17 0.0
4.6855530154115684e-17 0.0
3.517174317291231e-17 0.0
4.8364716622792515e-17 0.0
9.788680308629848e-17 0.0
6.27520176009581e-17 0.0
4.45717751211719e-17 0.0
5.1195677687400065e-17 0.0
6.780936041172018e-17 0.0
-1.278023372417407e-17 0.0
1.0376621228711519e-16 0.0
2.2594164820999516e-17 0.0
1.9193036837513467e-17 0.0
5.0067486182978453e-17 0.0
-1.2940985655992455e-17 0.0
7.945364951405406e-17 0.0
-8.661656751034956e-18 0.0
1.3950484092177742e-17 0.0
7.966098256496371e-17 0.0
-3.348449188310362e-17 0.0
8.349563745921863e-17 0.0
4.1824077646026357e-17 0.0
-6.711027345723765e-17 0.0
3.3274027807770716e-17 0.0
-1.9435867748191183e-17 0.0
0.0 0.009234165287257663
0.0 0.022109785930449488
0.0 0.040062852071533026
0.0 0.06509563926323808
-4.3872228756062683e-17 0.1
-5.812437936836773e-17 0.1
5.09257042220031e-16 0.1
-6.377514508033036e-16 0.1
0.0 0.09234095951662712
0.0 0.08526779443702943
0.0 0.07873568783498906
0.0 0.07270325358170042
0.0 0.06713226878993993
0.0 0.06198743331091586
0.0 0.05723615233794801
0.0 0.05284831692952138
0.0 0.048796128449941224
0.0 0.04505391065784554
0.0 0.04159795282712683
0.0 0.038406357242570716
0.0 0.03545890171822306
0.0 0.03273691087332625
0.0 0.030223137736027677
0.0 0.027901654838203074
0.0 0.025757753001959715
0.0 0.023777848352115098
0.0 0.02194939580780296
0.0 0.02026081025589457
0.0 0.018701392223653468
0.0 0.01726126159503481
0.0 0.01593129333668029
0.0 0.014703060372940554
0.0 0.013568780782904553
0.0 0.012521267482861365
0.0 0.011553883413523794
0.0 0.010660499143843039
0.0 0.009835453922831203
0.0 0.009073520329637779
0.0 0.008369870608788937
0.0 0.0077200463033815295
0.0 0.007119930012360125
0.0 0.006565719473503459
0.0 0.0060539031385673766
0.0 0.005581237991563754
0.0 0.005144729226039778
0.0 0.0047416110574787975
0.0 0.004369329279183673
0.0 0.004025525045303497
0.0 0.0037080200191016398
0.0 0.0034148038697062394
0.0 0.003144035947594744
0.0 0.002894100001176414
0.0 0.0026637349169680957
0.0 0.002452121846496768
0.0 0.0022583681892655964
0.0 0.0020812414937109716
0.0 0.0019188249284253509
0.0 0.0017700330487331925
0.0 0.0016345762527118864
0.0 0.0015120006191979589
0.0 0.0014007576510949795
0.0 0.0012997304380950603
0.0 0.0012081638699858405
0.0 0.0011259230491581101
0.0 0.0010522898167174626
0.0 0.0009865636205868005
0.0 0.0009280961226088407
0.0 0.0008764480623630205
0.0 0.0008312780158171716
0.0 0.0007923617401819419
0.0 0.000759258448221684
0.0 0.0007312061353519115
0.0 0.0007084206270542359
0.0 0.0006893460680881356
0.0 0.0006743817404165996
0.0 0.0006629533678237475
0.0 0.00065442582464002
0.0 0.0006484788410114944
0.0 0.0006442256330976916
0.0 0.0006415789811577774
0.0 0.0006398251920091271
0.0 0.0006386877846536346
0.0 0.0006377547656186232
0.0 0.000636966118103903
0.0 0.0006360747140526414
0.0 0.0006350176742290974
0.0 0.0006337648034282931
0.0 0.0006321530110933009
0.0 0.000630418799711664
0.0 0.0006284366694672246
0.0 0.0006262972912182302
-3.0421718285696997e-18 0.004927245132661819
3.658493465249436e-12 0.00277387459519722
3.788154665708705e-06 0.001538866495938037
2.466313668646923e-05 0.0009225701022967568
5.6730391320940625e-09 0.0014042067248244757
2.5546546724813542e-17 0.0022597849426047017
3.850399168043173e-05 0.0005768071527399836
1.5340165953727039e-13 0.0012867734734735821
6.201234605191529e-06 0.0007833744671524638
5.275629804599242e-07 0.0007702363418000373
8.198437313409162e-09 0.0007097606739207617
3.784342076437758e-11 0.000676776903015555
4.793244172920526e-17 0.014973736461408526
7.385672822663712e-14 0.0006657294860903715
8.849086229954402e-06 0.0004491119184720334
5.565990636396714e-06 0.000436594846545379
1.1116525445082635e-17 0.0011704180815624418
5.264693931343763e-05 0.0004785511779594709
3.7220099473557715e-06 0.00039135915573321894
1.6354532745740308e-06 0.0004233792771133825
3.102262715061788e-07 0.00040052626885540767
3.3744677527715e-08 0.0003772809386957164
2.548851712074005e-09 0.00037799253581011303
1.4160744978357198e-16 0.0006414990043901307
1.6105972555045297e-10 0.00035247016554417604
5.240497831104388e-12 0.00039119165221360175
-8.551527798529719e-17 0.04847397115433134
5.964521007678702e-06 0.0002873093077163442
-5.969187995110137e-06 0.000247672810452551
2.5072881432699706e-13 0.00033400753028732055
5.289041857556524e-15 0.0003955732173976216
3.2485545052280006e-17 0.007989497114757174
-1.5283712849358246e-17 0.0037118346624276126
-4.83851233801286e-06 0.00022134130768290038
-5.092792055374003e-07 0.0002291226971790973
1.978002117500469e-06 0.00022018983237334186