# vtk DataFile Version 3.0
Some data
ASCII
DATASET UNSTRUCTURED_GRID
POINTS 7930 float
0.0 0.0 0.0
0.0 10.0 0.0
10.0 10.0 0.0
10.0 0.0 0.0
0.5 0.0 0.0
0.0009999999999981016 0.0 0.0
0.001999999999996203 0.0 0.0
0.002999999999994305 0.0 0.0
0.003999999999992409 0.0 0.0
0.004999999999990531 0.0 0.0
0.005999999999988653 0.0 0.0
0.006999999999986775 0.0 0.0
0.007999999999984898 0.0 0.0
0.008999999999983018 0.0 0.0
0.009999999999981142 0.0 0.0
0.01099999999997926 0.0 0.0
0.01199999999997736 0.0 0.0
0.0129999999999754 0.0 0.0
0.01399999999997343 0.0 0.0
0.01499999999997147 0.0 0.0
0.01599999999996944 0.0 0.0
0.0169999999999673 0.0 0.0
0.01799999999996516 0.0 0.0
0.01899999999996302 0.0 0.0
0.01999999999996084 0.0 0.0
0.02099999999995862 0.0 0.0
0.02199999999995639 0.0 0.0
0.02299999999995417 0.0 0.0
0.02399999999995195 0.0 0.0
0.02499999999994972 0.0 0.0
0.0259999999999475 0.0 0.0
0.02699999999994527 0.0 0.0
0.02799999999994315 0.0 0.0
0.0289999999999411 0.0 0.0
0.02999999999993905 0.0 0.0
0.030999999999937 0.0 0.0
0.03199999999993521 0.0 0.0
0.0329999999999335 0.0 0.0
0.0339999999999318 0.0 0.0
0.03499999999993009 0.0 0.0
0.03599999999992853 0.0 0.0
0.036999999999927 0.0 0.0
0.03799999999992547 0.0 0.0
0.03899999999992394 0.0 0.0
0.03999999999992241 0.0 0.0
0.04099999999992088 0.0 0.0
0.04199999999991934 0.0 0.0
0.04299999999991782 0.0 0.0
0.04399999999991629 0.0 0.0
0.04499999999991475 0.0 0.0
0.04599999999991322 0.0 0.0
0.0469999999999117 0.0 0.0
0.04799999999991016 0.0 0.0
0.04899999999990863 0.0 0.0
0.0499999999999071 0.0 0.0
0.05099999999990557 0.0 0.0
0.05199999999990404 0.0 0.0
0.05299999999990251 0.0 0.0
0.05399999999990097 0.0 0.0
0.05499999999989943 0.0 0.0
0.05599999999989791 0.0 0.0
0.05699999999989638 0.0 0.0
0.05799999999989484 0.0 0.0
0.05899999999989317 0.0 0.0
0.05999999999989129 0.0 0.0
0.06099999999988941 0.0 0.0
0.06199999999988753 0.0 0.0
0.06299999999988531 0.0 0.0
0.06399999999988273 0.0 0.0
0.06499999999988015 0.0 0.0
0.06599999999987759 0.0 0.0
0.0669999999998748 0.0 0.0
0.06799999999987189 0.0 0.0
0.06899999999986897 0.0 0.0
0.06999999999986604 0.0 0.0
0.07099999999986313 0.0 0.0
0.0719999999998602 0.0 0.0
0.07299999999985729 0.0 0.0
0.07399999999985438 0.0 0.0
0.07499999999985145 0.0 0.0
0.07599999999984854 0.0 0.0
0.07699999999984562 0.0 0.0
0.0779999999998427 0.0 0.0
0.07899999999983978 0.0 0.0
0.07999999999983685 0.0 0.0
0.08099999999983394 0.0 0.0
0.08199999999983103 0.0 0.0
0.0829999999998281 0.0 0.0
0.08399999999982519 0.0 0.0
0.08499999999982226 0.0 0.0
0.08599999999981935 0.0 0.0
0.08699999999981643 0.0 0.0
0.0879999999998135 0.0 0.0
0.08899999999981059 0.0 0.0
0.08999999999980766 0.0 0.0
0.09099999999980475 0.0 0.0
0.09199999999980184 0.0 0.0
0.09299999999979891 0.0 0.0
0.093999999999796 0.0 0.0
0.09499999999979307 0.0 0.0
0.09599999999979016 0.0 0.0
0.09699999999978724 0.0 0.0
0.09799999999978432 0.0 0.0
0.0989999999997814 0.0 0.0
0.09999999999977847 0.0 0.0
0.1009999999997756 0.0 0.0
0.1019999999997726 0.0 0.0
0.1029999999997697 0.0 0.0
0.1039999999997668 0.0 0.0
0.1049999999997639 0.0 0.0
0.105999999999761 0.0 0.0
0.106999999999758 0.0 0.0
0.1079999999997551 0.0 0.0
0.1089999999997522 0.0 0.0
0.1099999999997493 0.0 0.0
0.1109999999997464 0.0 0.0
0.1119999999997434 0.0 0.0
0.1129999999997405 0.0 0.0
0.1139999999997376 0.0 0.0
0.1149999999997347 0.0 0.0
0.1159999999997318 0.0 0.0
0.1169999999997288 0.0 0.0
0.1179999999997259 0.0 0.0
0.118999999999723 0.0 0.0
0.1199999999997201 0.0 0.0
0.1209999999997172 0.0 0.0
0.1219999999997143 0.0 0.0
0.1229999999997113 0.0 0.0
0.1239999999997084 0.0 0.0
0.1249999999997055 0.0 0.0
0.1259999999997026 0.0 0.0
0.1269999999996997 0.0 0.0
0.1279999999996967 0.0 0.0
0.1289999999996938 0.0 0.0
0.1299999999996909 0.0 0.0
0.130999999999688 0.0 0.0
0.1319999999996851 0.0 0.0
0.1329999999996822 0.0 0.0
0.1339999999996792 0.0 0.0
0.1349999999996764 0.0 0.0
0.1359999999996734 0.0 0.0
0.1369999999996705 0.0 0.0
0.1379999999996676 0.0 0.0
0.1389999999996647 0.0 0.0
0.1399999999996618 0.0 0.0
0.1409999999996588 0.0 0.0
0.1419999999996559 0.0 0.0
0.142999999999653 0.0 0.0
0.1439999999996501 0.0 0.0
0.1449999999996472 0.0 0.0
0.1459999999996442 0.0 0.0
0.1469999999996414 0.0 0.0
0.1479999999996384 0.0 0.0
0.1489999999996355 0.0 0.0
0.1499999999996326 0.0 0.0
0.1509999999996297 0.0 0.0
0.1519999999996268 0.0 0.0
0.1529999999996239 0.0 0.0
0.1539999999996209 0.0 0.0
0.154999999999618 0.0 0.0
0.1559999999996151 0.0 0.0
0.1569999999996122 0.0 0.0
0.1579999999996093 0.0 0.0
0.1589999999996064 0.0 0.0
0.1599999999996035 0.0 0.0
0.1609999999996005 0.0 0.0
0.1619999999995976 0.0 0.0
0.1629999999995947 0.0 0.0
0.1639999999995918 0.0 0.0
0.1649999999995889 0.0 0.0
0.165999999999586 0.0 0.0
0.1669999999995831 0.0 0.0
0.1679999999995801 0.0 0.0
0.1689999999995772 0.0 0.0
0.1699999999995743 0.0 0.0
0.1709999999995714 0.0 0.0
0.1719999999995685 0.0 0.0
0.1729999999995655 0.0 0.0
0.1739999999995626 0.0 0.0
0.1749999999995597 0.0 0.0
0.1759999999995568 0.0 0.0
0.1769999999995539 0.0 0.0
0.177999999999551 0.0 0.0
0.178999999999548 0.0 0.0
0.1799999999995451 0.0 0.0
0.1809999999995422 0.0 0.0
0.1819999999995393 0.0 0.0
0.1829999999995364 0.0 0.0
0.1839999999995335 0.0 0.0
0.1849999999995305 0.0 0.0
0.1859999999995277 0.0 0.0
0.1869999999995247 0.0 0.0
0.1879999999995218 0.0 0.0
0.1889999999995189 0.0 0.0
0.189999999999516 0.0 0.0
0.1909999999995131 0.0 0.0
0.1919999999995101 0.0 0.0
0.1929999999995072 0.0 0.0
0.1939999999995043 0.0 0.0
0.1949999999995014 0.0 0.0
0.1959999999994985 0.0 0.0
0.1969999999994956 0.0 0.0
0.1979999999994927 0.0 0.0
0.1989999999994897 0.0 0.0
0.1999999999994868 0.0 0.0
0.2009999999994839 0.0 0.0
0.201999999999481 0.0 0.0
0.2029999999994781 0.0 0.0
0.2039999999994752 0.0 0.0
0.2049999999994722 0.0 0.0
0.2059999999994693 0.0 0.0
0.2069999999994664 0.0 0.0
0.2079999999994635 0.0 0.0
0.2089999999994606 0.0 0.0
0.2099999999994577 0.0 0.0
0.2109999999994548 0.0 0.0
0.2119999999994518 0.0 0.0
0.2129999999994489 0.0 0.0
0.213999999999446 0.0 0.0
0.2149999999994431 0.0 0.0
0.2159999999994402 0.0 0.0
0.2169999999994373 0.0 0.0
0.2179999999994343 0.0 0.0
0.2189999999994314 0.0 0.0
0.2199999999994285 0.0 0.0
0.2209999999994256 0.0 0.0
0.2219999999994227 0.0 0.0
0.2229999999994198 0.0 0.0
0.2239999999994168 0.0 0.0
0.2249999999994139 0.0 0.0
0.225999999999411 0.0 0.0
0.2269999999994081 0.0 0.0
0.2279999999994052 0.0 0.0
0.2289999999994023 0.0 0.0
0.2299999999993994 0.0 0.0
0.2309999999993964 0.0 0.0
0.2319999999993935 0.0 0.0
0.2329999999993906 0.0 0.0
0.2339999999993877 0.0 0.0
0.2349999999993848 0.0 0.0
0.2359999999993818 0.0 0.0
0.236999999999379 0.0 0.0
0.237999999999376 0.0 0.0
0.2389999999993731 0.0 0.0
0.2399999999993702 0.0 0.0
0.2409999999993673 0.0 0.0
0.2419999999993644 0.0 0.0
0.2429999999993615 0.0 0.0
0.2439999999993585 0.0 0.0
0.2449999999993556 0.0 0.0
0.2459999999993527 0.0 0.0
0.246999999999351 0.0 0.0
0.2479999999993495 0.0 0.0
0.248999999999348 0.0 0.0
0.2499999999993464 0.0 0.0
0.2509999999993477 0.0 0.0
0.2519999999993489 0.0 0.0
0.2529999999993502 0.0 0.0
0.2539999999993516 0.0 0.0
0.2549999999993542 0.0 0.0
0.2559999999993569 0.0 0.0
0.2569999999993595 0.0 0.0
0.2579999999993621 0.0 0.0
0.2589999999993647 0.0 0.0
0.2599999999993673 0.0 0.0
0.26099999999937 0.0 0.0
0.2619999999993726 0.0 0.0
0.2629999999993753 0.0 0.0
0.2639999999993779 0.0 0.0
0.2649999999993806 0.0 0.0
0.2659999999993832 0.0 0.0
0.2669999999993858 0.0 0.0
0.2679999999993884 0.0 0.0
0.2689999999993911 0.0 0.0
0.2699999999993937 0.0 0.0
0.2709999999993963 0.0 0.0
0.271999999999399 0.0 0.0
0.2729999999994017 0.0 0.0
0.2739999999994043 0.0 0.0
0.2749999999994069 0.0 0.0
0.2759999999994096 0.0 0.0
0.2769999999994122 0.0 0.0
0.2779999999994148 0.0 0.0
0.2789999999994174 0.0 0.0
0.2799999999994201 0.0 0.0
0.2809999999994228 0.0 0.0
0.2819999999994254 0.0 0.0
0.282999999999428 0.0 0.0
0.2839999999994306 0.0 0.0
0.2849999999994333 0.0 0.0
0.2859999999994359 0.0 0.0
0.2869999999994385 0.0 0.0
0.2879999999994411 0.0 0.0
0.2889999999994439 0.0 0.0
0.2899999999994465 0.0 0.0
0.2909999999994491 0.0 0.0
0.2919999999994517 0.0 0.0
0.2929999999994544 0.0 0.0
0.293999999999457 0.0 0.0
0.2949999999994596 0.0 0.0
0.2959999999994622 0.0 0.0
0.2969999999994649 0.0 0.0
0.2979999999994676 0.0 0.0
0.2989999999994702 0.0 0.0
0.2999999999994728 0.0 0.0
0.3009999999994754 0.0 0.0
0.3019999999994781 0.0 0.0
0.3029999999994807 0.0 0.0
0.3039999999994834 0.0 0.0
0.304999999999486 0.0 0.0
0.3059999999994886 0.0 0.0
0.3069999999994913 0.0 0.0
0.3079999999994939 0.0 0.0
0.3089999999994965 0.0 0.0
0.3099999999994992 0.0 0.0
0.3109999999995018 0.0 0.0
0.3119999999995045 0.0 0.0
0.3129999999995071 0.0 0.0
0.3139999999995097 0.0 0.0
0.3149999999995123 0.0 0.0
0.315999999999515 0.0 0.0
0.3169999999995176 0.0 0.0
0.3179999999995203 0.0 0.0
0.3189999999995229 0.0 0.0
0.3199999999995256 0.0 0.0
0.3209999999995282 0.0 0.0
0.3219999999995308 0.0 0.0
0.3229999999995334 0.0 0.0
0.323999999999536 0.0 0.0
0.3249999999995387 0.0 0.0
0.3259999999995414 0.0 0.0
0.326999999999544 0.0 0.0
0.3279999999995466 0.0 0.0
0.3289999999995493 0.0 0.0
0.3299999999995519 0.0 0.0
0.3309999999995545 0.0 0.0
0.3319999999995571 0.0 0.0
0.3329999999995598 0.0 0.0
0.3339999999995625 0.0 0.0
0.3349999999995651 0.0 0.0
0.3359999999995677 0.0 0.0
0.3369999999995703 0.0 0.0
0.337999999999573 0.0 0.0
0.3389999999995756 0.0 0.0
0.3399999999995783 0.0 0.0
0.3409999999995809 0.0 0.0
0.3419999999995835 0.0 0.0
0.3429999999995862 0.0 0.0
0.3439999999995888 0.0 0.0
0.3449999999995914 0.0 0.0
0.345999999999594 0.0 0.0
0.3469999999995967 0.0 0.0
0.3479999999995994 0.0 0.0
0.348999999999602 0.0 0.0
0.3499999999996046 0.0 0.0
0.3509999999996072 0.0 0.0
0.3519999999996099 0.0 0.0
0.3529999999996125 0.0 0.0
0.3539999999996151 0.0 0.0
0.3549999999996178 0.0 0.0
0.3559999999996205 0.0 0.0
0.3569999999996231 0.0 0.0
0.3579999999996257 0.0 0.0
0.3589999999996283 0.0 0.0
0.359999999999631 0.0 0.0
0.3609999999996336 0.0 0.0
0.3619999999996362 0.0 0.0
[...]
POINT_DATA 7930
SCALARS Disp float 2
LOOKUP_TABLE default
0.0 0.0011495980563822625
0.0 0.1
0.0 0.1
0.0 0.0
2.022582286165962e-07 0.0
-6.8433414816920795e-06 0.0011492932212770557
-1.3625269999073284e-05 0.0011486675535393803
-2.0463539104539548e-05 0.001148074385396315
-2.7439125612877677e-05 0.001146589318513451
-3.403277719897909e-05 0.001144095805848101
-4.060063521074408e-05 0.0011421862380533061
-4.773358485962691e-05 0.0011409415946903865
-5.497063429885471e-05 0.0011379697384609176
-6.163414828420031e-05 0.0011331411022406945
-6.789301769799194e-05 0.001129078960413434
-7.474774488689858e-05 0.0011268917581254475
-8.242065876475043e-05 0.0011227795950514013
-8.918267344357029e-05 0.001116007478240825
-9.543422545424422e-05 0.0011100841053046226
-0.00010243548164581933 0.001106125016003305
-0.00010982842065655327 0.0011003644631834841
-0.00011672350518589725 0.001091542813480515
-0.00012254533759582825 0.0010836175965845492
-0.0001292149165355729 0.0010782251625202168
-0.00013685093891338413 0.001071496155824064
-0.0001439097207596951 0.0010603947101139163
-0.0001497555113393668 0.0010503883892416417
-0.00015635884959476753 0.0010435267884119955
-0.00016422619189947026 0.0010348397764358601
-0.00017137500699062694 0.0010215144435794625
-0.00017721699983975077 0.0010088104235525862
-0.0001836907617356266 0.0009997885971888977
-0.00019146649663809453 0.0009891487443191443
-0.00019849473830414968 0.000973810427750412
-0.00020435573135089237 0.0009587493967818041
-0.00021074510637073427 0.0009473454634399042
-0.00021858128346318172 0.000934472328056537
-0.00022590866535467438 0.0009161870597807814
-0.00023191417486980486 0.0008974757635084307
-0.00023805484543789913 0.0008830144650866932
-0.0002458867501569996 0.0008673658083344074
-0.0002530778105098301 0.0008458148179328983
-0.0002588721681838578 0.0008234614119646597
-0.0002649662770875344 0.0008055193211271082
-0.00027289343663574635 0.0007864529531347046
-0.00028051205560358154 0.0007604988854150703
-0.00028640039643160886 0.0007328974381692991
-0.0002922242620297634 0.0007094217418568572
-0.0003001941483583148 0.0006849653031355644
-0.0003077396007049624 0.0006531037649104407
-0.0003138516175095097 0.0006181367129543162
-0.0003198062290194007 0.0005862789831461002
-0.00032673381872694876 0.0005528036885490065
-0.0003346353791986589 0.0005101742103747057
-0.0003402879503211503 0.0004617951574668928
-0.00034606128334162717 0.00041277369723284065
-0.00035135956229348357 0.00035871376269489073
-0.00035735589804021615 0.0002852948750467712
-0.00035894809233964715 0.00018375709747652405
-0.0003351325362952067 0.0
-0.0003008562553798722 0.0
-0.00027709043867120593 0.0
-0.0002591849867532075 0.0
-0.0002452539981559803 0.0
-0.00023385002115523007 0.0
-0.00022383815244567785 0.0
-0.00021502278829169634 0.0
-0.00020704352305198648 0.0
-0.0001997449905527295 0.0
-0.00019304736636321392 0.0
-0.00018690714299520904 0.0
-0.00018118350992288502 0.0
-0.00017582880272280386 0.0
-0.00017082426833113184 0.0
-0.00016613359444591822 0.0
-0.00016167925923912146 0.0
-0.00015746918908705266 0.0
-0.00015347290549638 0.0
-0.00014964996502003932 0.0
-0.00014601589418639015 0.0
-0.00014255768954977323 0.0
-0.0001392537471873426 0.0
-0.00013609616459981516 0.0
-0.00013305412079776862 0.0
-0.00013014111740872766 0.0
-0.00012734363382638076 0.0
-0.0001246444232220585 0.0
-0.00012204118347900826 0.0
-0.00011954016723000562 0.0
-0.00011711252269789759 0.0
-0.00011475755958838815 0.0
-0.00011248238293905435 0.0
-0.00011027724430522045 0.0
-0.00010814192467522226 0.0
-0.0001060635440245489 0.0
-0.00010404446446047726 0.0
-0.00010208212328563145 0.0
-0.00010017130510965503 0.0
-9.831262538473905e-05 0.0
-9.650836629357673e-05 0.0
-9.475178287217535e-05 0.0
-9.303584542192495e-05 0.0
-9.136559349549575e-05 0.0
-8.973369080534861e-05 0.0
-8.814709429335808e-05 0.0
-8.659927229420495e-05 0.0
-8.509331569280166e-05 0.0
-8.362575140283125e-05 0.0
-8.219517269932646e-05 0.0
-8.079927376192079e-05 0.0
-7.94288014825885e-05 0.0
-7.809477656774338e-05 0.0
-7.680010485273398e-05 0.0
-7.551611081721908e-05 0.0
-7.426720534722487e-05 0.0
-7.304572761738083e-05 0.0
-7.184528762778952e-05 0.0
-7.066987274538971e-05 0.0
-6.951779811667914e-05 0.0
-6.83849148879516e-05 0.0
-6.727425641558568e-05 0.0
-6.618586639153076e-05 0.0
-6.511819224374619e-05 0.0
-6.407530351332309e-05 0.0
-6.303850706085395e-05 0.0
-6.202775749084806e-05 0.0
-6.1031984971621706e-05 0.0
-6.005664380927817e-05 0.0
-5.909322327899807e-05 0.0
-5.814839100508499e-05 0.0
-5.721888997206273e-05 0.0
-5.630465878464135e-05 0.0
-5.5404948060521094e-05 0.0
-5.4520238114474386e-05 0.0
-5.3649769190071406e-05 0.0
-5.279288431357616e-05 0.0
-5.194914091218377e-05 0.0
-5.112045241340055e-05 0.0
-5.03071563948664e-05 0.0
-4.950066046640329e-05 0.0
-4.870993533618888e-05 0.0
-4.793036830297665e-05 0.0
-4.716339603639833e-05 0.0
-4.640785498025512e-05 0.0
-4.566412272327988e-05 0.0
-4.493276887911579e-05 0.0
-4.421327597354082e-05 0.0
-4.350539216535321e-05 0.0
-4.280777773150902e-05 0.0
-4.212173508674469e-05 0.0
-4.144700113860386e-05 0.0
-4.0782563524665296e-05 0.0
-4.01287170973571e-05 0.0
-3.948473666343801e-05 0.0
-3.8850008956448494e-05 0.0
-3.822457274936641e-05 0.0
-3.760820146117386e-05 0.0
-3.699981920027344e-05 0.0
-3.6399158201461684e-05 0.0
-3.580691299582843e-05 0.0
-3.522315913435355e-05 0.0
-3.4643722579877646e-05 0.0
-3.407379876368508e-05 0.0
-3.35095879551795e-05 0.0
-3.295177201102883e-05 0.0
-3.240126227585969e-05 0.0
-3.1853416674152465e-05 0.0
-3.131411266334431e-05 0.0
-3.07804304043189e-05 0.0
-3.025237891656369e-05 0.0
-2.973041968344738e-05 0.0
-2.9214312051495072e-05 0.0
-2.8703923728977098e-05 0.0
-2.819926650340581e-05 0.0
-2.7700779802057558e-05 0.0
-2.7208224583990586e-05 0.0
-2.672149516285572e-05 0.0
-2.6241546824153447e-05 0.0
-2.5768308212419977e-05 0.0
-2.5301289260259964e-05 0.0
-2.4840659460907952e-05 0.0
-2.4386827685703033e-05 0.0
-2.3939693343279985e-05 0.0
-2.3498451998177904e-05 0.0
-2.3063708062464542e-05 0.0
-2.263539329652532e-05 0.0
-2.2213031304008738e-05 0.0
-2.179659755148836e-05 0.0
-2.1385851595057292e-05 0.0
-2.0980922955344393e-05 0.0
-2.0581099316844467e-05 0.0
-2.0186447732724054e-05 0.0
-1.979676447301802e-05 0.0
-1.9411744147787042e-05 0.0
-1.9031274771318316e-05 0.0
-1.8655307750570945e-05 0.0
-1.828314402497749e-05 0.0
-1.7914882054065772e-05 0.0
-1.7550171233673775e-05 0.0
-1.7189078793229053e-05 0.0
-1.683172244238108e-05 0.0
-1.647745363488816e-05 0.0
-1.6126182234553014e-05 0.0
-1.5778325059701636e-05 0.0
-1.5433262370946715e-05 0.0
-1.5091276127821197e-05 0.0
-1.4752519045386678e-05 0.0
-1.4416896917723176e-05 0.0
-1.4084275818267225e-05 0.0
-1.3755303011858787e-05 0.0
-1.3428668697623415e-05 0.0
-1.3105411655130864e-05 0.0
-1.2785520249201177e-05 0.0
-1.2469309616622072e-05 0.0
-1.215651894277065e-05 0.0
-1.1847397324055845e-05 0.0
-1.1541946822183585e-05 0.0
-1.124007780980965e-05 0.0
-1.0942087359024726e-05 0.0
-1.0648519337934569e-05 0.0
-1.0357734900725712e-05 0.0
-1.0071318828810958e-05 0.0
-9.788993877144333e-06 0.0
-9.510385510133922e-06 0.0
-9.235627363844655e-06 0.0
-8.964852504243968e-06 0.0
-8.697813462291682e-06 0.0
-8.434359904845885e-06 0.0
-8.174589602762882e-06 0.0
-7.918386020795139e-06 0.0
-7.66566242563489e-06 0.0
-7.4163582645208525e-06 0.0
-7.1702195138978205e-06 0.0
-6.927148760462199e-06 0.0
-6.687012275428738e-06 0.0
-6.44969314516693e-06 0.0
-6.214990581306085e-06 0.0
-5.982894784550539e-06 0.0
-5.753334270786565e-06 0.0
-5.525957360269593e-06 0.0
-5.300929799250215e-06 0.0
-5.077936294096383e-06 0.0
-4.857110082843838e-06 0.0
-4.638242927620967e-06 0.0
-4.421193971156572e-06 0.0
-4.205953451175141e-06 0.0
-3.992481456065996e-06 0.0
-3.7807440218317707e-06 0.0
-3.5706532751427445e-06 0.0
-3.3623358186680554e-06 0.0
-3.155900309753522e-06 0.0
-2.9511002769246776e-06 0.0
-2.748044662873558e-06 0.0
-2.546982867625212e-06 0.0
-2.3478129448767466e-06 0.0
-2.150567428595602e-06 0.0
-1.9553653012147057e-06 0.0
-1.7622655319503875e-06 0.0
-1.571274938479005e-06 0.0
-1.3826244188862059e-06 0.0
-1.1962359870849696e-06 0.0
-1.0123479427028267e-06 0.0
-8.310162489407971e-07 0.0
-6.523582666399698e-07 0.0
-4.764122723076682e-07 0.0
-3.0327067241630334e-07 0.0
-1.329456527204266e-07 0.0
3.444394334626235e-08 0.0
1.9881616646095495e-07 0.0
3.6024439038189835e-07 0.0
5.18497335144218e-07 0.0
6.735415707633472e-07 0.0
8.25459484372164e-07 0.0
9.740760522897163e-07 0.0
1.1198726144794586e-06 0.0
1.2623036727475207e-06 0.0
1.4012945536249882e-06 0.0
1.5373841272944714e-06 0.0
1.6701396693112938e-06 0.0
1.7997927288330904e-06 0.0
1.926149414048817e-06 0.0
2.0493761912691718e-06 0.0
2.169651424108745e-06 0.0
2.2868202030788956e-06 0.0
2.401152811741588e-06 0.0
2.5123853217068828e-06 0.0
2.6205989153887614e-06 0.0
2.726162293819652e-06 0.0
2.8289084901334215e-06 0.0
2.9290864693719944e-06 0.0
3.0266136889233892e-06 0.0
3.1213840109933017e-06 0.0
3.213685398090177e-06 0.0
3.303383503811055e-06 0.0
3.3909484784643273e-06 0.0
3.476068371700457e-06 0.0
3.5589184670658836e-06 0.0
3.6392775361020915e-06 0.0
3.7172840897965974e-06 0.0
3.7933884696527375e-06 0.0
3.867203836376645e-06 0.0
3.938857308254063e-06 0.0
4.008364942938652e-06 0.0
4.075786356889363e-06 0.0
4.141070460407661e-06 0.0
4.204366088766716e-06 0.0
4.265528442948144e-06 0.0
4.324638121597489e-06 0.0
4.38166239533805e-06 0.0
4.436600791416225e-06 0.0
4.489496797398156e-06 0.0
4.540276539300198e-06 0.0
4.589226804227415e-06 0.0
4.636054682107579e-06 0.0
4.6807344189761945e-06 0.0
4.723249427583934e-06 0.0
4.7636227372730404e-06 0.0
4.802172552343605e-06 0.0
4.838560176927797e-06 0.0
4.872881176558465e-06 0.0
4.905107911755553e-06 0.0
4.9351038095848755e-06 0.0
4.962940150503828e-06 0.0
4.988692873318373e-06 0.0
5.0125813942194765e-06 0.0
5.0343203371127475e-06 0.0
5.053941956240243e-06 0.0
5.071703932360132e-06 0.0
5.087413902914753e-06 0.0
5.10103974266655e-06 0.0
5.1128108327416975e-06 0.0
5.122537948498153e-06 0.0
5.130408395314547e-06 0.0
5.136387665009732e-06 0.0
5.1404619162440044e-06 0.0
5.142836029887965e-06 0.0
5.143457110115286e-06 0.0
5.142407669255137e-06 0.0
5.139693985776579e-06 0.0
5.135420140479098e-06 0.0
5.129639677198692e-06 0.0
5.122421496056568e-06 0.0
5.113821293261183e-06 0.0
5.103821606782912e-06 0.0
5.092527520448689e-06 0.0
5.080002160411883e-06 0.0
5.066324991706773e-06 0.0
5.051540297544428e-06 0.0
5.035680341749796e-06 0.0
5.018751111049159e-06 0.0
5.000960661557859e-06 0.0
4.982244795279368e-06 0.0
4.9627471391534925e-06 0.0
4.942544950185646e-06 0.0
4.92154683952638e-06 0.0
4.8998258405181315e-06 0.0
4.8775665688798914e-06 0.0
4.854688055778551e-06 0.0
4.83131270716001e-06 0.0
4.807433228401475e-06 0.0
4.78303133094935e-06 0.0
4.758267868209004e-06 0.0
4.733108412855052e-06 0.0
4.707589836927022e-06 0.0
4.681772651238754e-06 0.0
4.655609439200964e-06 0.0
4.629132937731711e-06 0.0
4.602399320895074e-06 0.0
4.575393026598717e-06 0.0
4.548140730496614e-06 0.0
4.520652189299933e-06 0.0
4.492917996048355e-06 0.0
4.4649529316475915e-06 0.0
4.436747782932536e-06 0.0
4.40835123191087e-06 0.0
4.3797107512877315e-06 0.0
4.350824969615114e-06 0.0
4.3216928311840226e-06 0.0
4.292313139794598e-06 0.0
4.2626737773605895e-06 0.0
4.232772594854127e-06 0.0
4.2025858688247985e-06 0.0
4.1721079174763324e-06 0.0
4.1413678620352674e-06 0.0
4.110293463213753e-06 0.0
4.078859671597545e-06 0.0
4.047117044742258e-06 0.0
4.015048597936522e-06 0.0
3.982581240515408e-06 0.0
3.949726414855825e-06 0.0
3.91650023399923e-06 0.0
3.882882558853216e-06 0.0
3.848850830538503e-06 0.0
3.814422903373065e-06 0.0
3.779543880922519e-06 0.0
3.744202194940817e-06 0.0
3.708447068534374e-06 0.0
3.672244877262389e-06 0.0
3.635585934233387e-06 0.0
3.5985042437220263e-06 0.0
3.5609317226625985e-06 0.0
3.52289960607659e-06 0.0
3.4844214955025914e-06 0.0
3.4454736911469194e-06 0.0
3.4060724234373256e-06 0.0
3.366250094858094e-06 0.0
3.3259922852922394e-06 0.0
3.2853047316400795e-06 0.0
3.2441966039133428e-06 0.0
3.2026879093515423e-06 0.0
3.1607892145411566e-06 0.0
3.118514618049728e-06 0.0
3.0758773456880647e-06 0.0
3.0328998048648354e-06 0.0
2.989597198237041e-06 0.0
2.94599371311652e-06 0.0
2.902110010931239e-06 0.0
2.8579604447726894e-06 0.0
2.8135698152652707e-06 0.0
2.76896280924583e-06 0.0
2.7241620184896534e-06 0.0
2.6791946582874042e-06 0.0
2.6340865997967168e-06 0.0
2.5888619072233083e-06 0.0
2.543548935006273e-06 0.0
2.4981724233239152e-06 0.0
2.4527596135784824e-06 0.0
2.407337598951088e-06 0.0
2.3619301066601105e-06 0.0
2.316572665465416e-06 0.0
2.271289070547423e-06 0.0
2.226108597013434e-06 0.0
2.1810521434868486e-06 0.0
2.136147868046566e-06 0.0
2.091424925679833e-06 0.0
2.0469073209773898e-06 0.0
2.0026184705913632e-06 0.0
1.9585840572838287e-06 0.0
1.914835172898048e-06 0.0
1.8713939953786935e-06 0.0
1.828286731654641e-06 0.0
1.785531339307334e-06 0.0
1.7431536633818046e-06 0.0
1.7011716328627504e-06 0.0
1.6595837211913198e-06 0.0
1.6184492408136719e-06 0.0
1.5777770873896438e-06 0.0
1.5375832635047775e-06 0.0
1.497872404640816e-06 0.0
1.458678640536849e-06 0.0
1.4199736792327758e-06 0.0
1.3818330258820784e-06 0.0
1.3442368109789248e-06 0.0
1.3071938733317517e-06 0.0
1.2707338227205614e-06 0.0
1.2348512851404627e-06 0.0
1.199550514074839e-06 0.0
1.164848687167419e-06 0.0
1.13075318364523e-06 0.0
1.0972703896388563e-06 0.0
1.064438042953929e-06 0.0
1.0321930951220995e-06 0.0
1.0005932522797632e-06 0.0
9.696229297517128e-07 0.0
9.39293239926986e-07 0.0
9.09614127576983e-07 0.0
8.805745032535813e-07 0.0
8.521584359972181e-07 0.0
8.243560965403067e-07 0.0
7.972101196606495e-07 0.0
7.707391436492641e-07 0.0
7.44909004539774e-07 0.0
7.19656907542636e-07 0.0
6.950438613927079e-07 0.0
6.710399688110221e-07 0.0
6.476571231732413e-07 0.0
6.248791069979821e-07 0.0
6.027142866574129e-07 0.0
5.811483354248858e-07 0.0
5.601521468595875e-07 0.0
5.397627302821458e-07 0.0
5.199568046919432e-07 0.0
5.007329158086387e-07 0.0
4.820529407462776e-07 0.0
4.63919925379292e-07 0.0
4.463242259027426e-07 0.0
4.2927109578464916e-07 0.0
4.1277271605506044e-07 0.0
3.9674582871917354e-07 0.0
3.812354437777064e-07 0.0
3.6622309394389096e-07 0.0
3.516875164536853e-07 0.0
3.3765483409927313e-07 0.0
3.240580654135969e-07 0.0
3.109091360459386e-07 0.0
2.982173228692614e-07 0.0
2.8596288801132626e-07 0.0
2.7411787792058394e-07 0.0
2.626929226388107e-07 0.0
2.51672438299538e-07 0.0
2.4105396017793645e-07 0.0
2.308088602970728e-07 0.0
2.209160772338678e-07 0.0
2.1141152286622907e-07 0.0
1.9312912772339673e-07 0.0
1.8361435168821342e-07 0.0
1.7372539187018365e-07 0.0
1.634974677635321e-07 0.0
1.529817027953062e-07 0.0
1.422195654479072e-07 0.0
1.3127451526155782e-07 0.0
1.2022474832494054e-07 0.0
1.0915055135571339e-07 0.0
9.814234612591508e-08 0.0
8.731651898702039e-08 0.0
7.674738307186978e-08 0.0
6.659337965695884e-08 0.0
5.691951636100975e-08 0.0
4.7838256413949644e-08 0.0
3.9509739676131425e-08 0.0
3.199361166298604e-08 0.0
2.5279975701907752e-08 0.0
1.9537805688046488e-08 0.0
1.4646911951216844e-08 0.0
1.0627399740456404e-08 0.0
7.4352987757641236e-09 0.0
5.040099624954139e-09 0.0
3.2253999831008676e-09 0.0
1.9838382278470708e-09 0.0
1.140679389297927e-09 0.0
6.185355983600708e-10 0.0
3.1407372315936383e-10 0.0
1.4589232310559424e-10 0.0
6.253341268072169e-11 0.0
2.4107882063443076e-11 0.0
8.209918101866985e-12 0.0
2.3805779691311632e-12 0.0
6.121947851474136e-13 0.0
1.2727037839186492e-13 0.0
2.0031032593892375e-14 0.0
2.3230573806512966e-15 0.0
1.8526363166081373e-16 0.0
1.815783351029036e-18 0.0
-8.10619494084492e-18 0.0
4.248063896991567e-18 0.0
6.6900638715639415e-18 0.0
2.38623930789966e-17 0.0
5.128975173619786e-17 0.0
5.41346883588769e-17 0.0
5.034501822481148e-17 0.0
5.2650953827647755e-17 0.0
4.170519394558852e-17 0.0
3.154343706836873e-17 0.0
5.0986540567079766e-17 0.0
8.58698747574934e-17 0.0
1.609150799873718e-18 0.0
1.9082063872163633e-17 0.0
5.902405146844667e-17 0.0
1.62407712593827e-17 0.0
-3.6321378658831144e-17 0.0
-3.031552171239875e-17 0.0
1.0436877805100837e-16 0.0
8.44763328992653e-17 0.0
3.5715052712917904e-17 0.0
1.5135980010126654e-16 0.0
2.387637355520508e-16 0.0
6.465892327089325e-17 0.0
-1.9719300280774266e-17 0.0
1.5428256515410888e-17 0.0
-1.161189241683588e-16 0.0
1.8283962694062768e-16 0.0
6.23875062295691e-17 0.0
-1.730320807977682e-16 0.0
3.587004309875631e-16 0.0
-1.38691294906489e-16 0.0
2.0906117530182494e-16 0.0
-1.465821698421062e-16 0.0
-1.763340113251117e-16 0.0
6.42982234278766e-16 0.0
-4.248709155755265e-17 0.0
-3.596857247757222e-16 0.0
1.7014631348665191e-16 0.0
-2.225286490182277e-16 0.0
0.0 0.009234165287259672
0.0 0.022109785930452847
0.0 0.0400628520715051
0.0 0.06509563926319648
-2.8326653321136e-16 0.1
-4.563635562016942e-16 0.1
5.586619101255793e-15 0.1
-6.427238308507261e-15 0.1
0.0 0.0923409595166277
0.0 0.08526779443702831
0.0 0.07873568783497872
0.0 0.07270325358168336
0.0 0.06713226878995313
0.0 0.06198743331092457
0.0 0.057236152337954385
0.0 0.05284831692952339
0.0 0.04879612844994807
0.0 0.04505391065783968
0.0 0.041597952827123114
0.0 0.03840635724257272
0.0 0.035458901718222725
0.0 0.032736910873328647
0.0 0.03022313773603268
0.0 0.027901654838206166
0.0 0.02575775300196104
0.0 0.02377784835211367
0.0 0.02194939580780386
0.0 0.020260810255895895
0.0 0.018701392223652746
0.0 0.01726126159503526
0.0 0.015931293336681016
0.0 0.014703060372940934
0.0 0.013568780782904317
0.0 0.012521267482861042
0.0 0.011553883413524297
0.0 0.01066049914383821
0.0 0.009835453922832641
0.0 0.009073520329614464
0.0 0.00836987060831783
0.0 0.007720046301911831
0.0 0.007119930049591167
0.0 0.006565719080668855
0.0 0.006053905325157016
0.0 0.005581224329471331
0.0 0.005144826054899872
0.0 0.004743434638648833
0.0 0.0043762096445829745
0.0 0.004039284187125414
0.0 0.0037302221405588715
0.0 0.003447740985947766
0.0 0.0031892029511205516
0.0 0.002954254205959653
0.0 0.0027407152080787317
0.0 0.0025466271247749
0.0 0.0023709413161288567
0.0 0.0022119085625136293
0.0 0.0020682510302183874
0.0 0.0019393803974795062
0.0 0.001824513109782867
0.0 0.001722056270906273
0.0 0.0016312692787909095
0.0 0.0015517324341752343
0.0 0.0014821105227982283
0.0 0.0014221897583267026
0.0 0.0013709983138276585
0.0 0.001327949325304068
0.0 0.0012922832939456814
0.0 0.0012633190992065082
0.0 0.0012399243763372557
0.0 0.0012216053741428029
0.0 0.0012079303054438348
0.0 0.001197301883077353
0.0 0.001190244099632339
0.0 0.0011843626564015744
0.0 0.0011805855775280914
0.0 0.0011781978084934098
0.0 0.0011765527745248071
0.0 0.0011753790538571048
0.0 0.001174158796388018
0.0 0.0011730826358862677
0.0 0.0011718617486612677
0.0 0.001170519159261096
0.0 0.001168896153981141
0.0 0.0011671624821881844
0.0 0.0011652336044687926
0.0 0.0011631712797118565
0.0 0.0011610279713538418
0.0 0.0011587520194897441
0.0 0.0011564777956683619
0.0 0.0011541317481513727
0.0 0.001151830728801276
7.852518163554482e-12 0.004927245143336641
7.89354287674347e-06 0.002779934600471354
4.86002305174689e-05 0.0015778161653232428
7.393242995048679e-05 0.0010498416555470963
1.3023938668907197e-05 0.0014048745510507428
7.7099099941686e-09 0.002259789755301993
9.753378760364883e-05 0.0008768920223355282
2.0166994510424934e-06 0.0012872210794006348
1.6506103731777455e-05 0.0007956414775398417
9.298087781899315e-06 0.000765227866676555
7.4743065876511015e-06 0.0007083222679663795
4.3601295420187616e-06 0.000676999274807559
2.0118596514358045e-17 0.014973736461408002
1.2103680141630002e-06 0.0006658614613521564
1.1728516646037482e-05 0.0005165345144578103
-1.1619959719924862e-05 0.0004523575526906982
4.576064348225537e-09 0.0011704191895344726
5.526267061236688e-05 0.0010033138240266891
-1.143200940421475e-05 0.00039157800039624484
-2.6564546751265377e-06 0.00041976464362968784
2.4865832549641917e-06 0.00039661716877316465
5.2099721406937355e-06 0.00037533344065342786
5.635538294726446e-06 0.00037747097368170447
9.681415775823708e-08 0.0006415103742889635