# vtk DataFile Version 3.0
Some data
ASCII
DATASET UNSTRUCTURED_GRID
POINTS 7930 float
0.0 0.0 0.0
0.0 10.0 0.0
10.0 10.0 0.0
10.0 0.0 0.0
0.5 0.0 0.0
0.0009999999999981016 0.0 0.0
0.001999999999996203 0.0 0.0
0.002999999999994305 0.0 0.0
0.003999999999992409 0.0 0.0
0.004999999999990531 0.0 0.0
0.005999999999988653 0.0 0.0
0.006999999999986775 0.0 0.0
0.007999999999984898 0.0 0.0
0.008999999999983018 0.0 0.0
0.009999999999981142 0.0 0.0
0.01099999999997926 0.0 0.0
0.01199999999997736 0.0 0.0
0.0129999999999754 0.0 0.0
0.01399999999997343 0.0 0.0
0.01499999999997147 0.0 0.0
0.01599999999996944 0.0 0.0
0.0169999999999673 0.0 0.0
0.01799999999996516 0.0 0.0
0.01899999999996302 0.0 0.0
0.01999999999996084 0.0 0.0
0.02099999999995862 0.0 0.0
0.02199999999995639 0.0 0.0
0.02299999999995417 0.0 0.0
0.02399999999995195 0.0 0.0
0.02499999999994972 0.0 0.0
0.0259999999999475 0.0 0.0
0.02699999999994527 0.0 0.0
0.02799999999994315 0.0 0.0
0.0289999999999411 0.0 0.0
0.02999999999993905 0.0 0.0
0.030999999999937 0.0 0.0
0.03199999999993521 0.0 0.0
0.0329999999999335 0.0 0.0
0.0339999999999318 0.0 0.0
0.03499999999993009 0.0 0.0
0.03599999999992853 0.0 0.0
0.036999999999927 0.0 0.0
0.03799999999992547 0.0 0.0
0.03899999999992394 0.0 0.0
0.03999999999992241 0.0 0.0
0.04099999999992088 0.0 0.0
0.04199999999991934 0.0 0.0
0.04299999999991782 0.0 0.0
0.04399999999991629 0.0 0.0
0.04499999999991475 0.0 0.0
0.04599999999991322 0.0 0.0
0.0469999999999117 0.0 0.0
0.04799999999991016 0.0 0.0
0.04899999999990863 0.0 0.0
0.0499999999999071 0.0 0.0
0.05099999999990557 0.0 0.0
0.05199999999990404 0.0 0.0
0.05299999999990251 0.0 0.0
0.05399999999990097 0.0 0.0
0.05499999999989943 0.0 0.0
0.05599999999989791 0.0 0.0
0.05699999999989638 0.0 0.0
0.05799999999989484 0.0 0.0
0.05899999999989317 0.0 0.0
0.05999999999989129 0.0 0.0
0.06099999999988941 0.0 0.0
0.06199999999988753 0.0 0.0
0.06299999999988531 0.0 0.0
0.06399999999988273 0.0 0.0
0.06499999999988015 0.0 0.0
0.06599999999987759 0.0 0.0
0.0669999999998748 0.0 0.0
0.06799999999987189 0.0 0.0
0.06899999999986897 0.0 0.0
0.06999999999986604 0.0 0.0
0.07099999999986313 0.0 0.0
0.0719999999998602 0.0 0.0
0.07299999999985729 0.0 0.0
0.07399999999985438 0.0 0.0
0.07499999999985145 0.0 0.0
0.07599999999984854 0.0 0.0
0.07699999999984562 0.0 0.0
0.0779999999998427 0.0 0.0
0.07899999999983978 0.0 0.0
0.07999999999983685 0.0 0.0
0.08099999999983394 0.0 0.0
0.08199999999983103 0.0 0.0
0.0829999999998281 0.0 0.0
0.08399999999982519 0.0 0.0
0.08499999999982226 0.0 0.0
0.08599999999981935 0.0 0.0
0.08699999999981643 0.0 0.0
0.0879999999998135 0.0 0.0
0.08899999999981059 0.0 0.0
0.08999999999980766 0.0 0.0
0.09099999999980475 0.0 0.0
0.09199999999980184 0.0 0.0
0.09299999999979891 0.0 0.0
0.093999999999796 0.0 0.0
0.09499999999979307 0.0 0.0
0.09599999999979016 0.0 0.0
0.09699999999978724 0.0 0.0
0.09799999999978432 0.0 0.0
0.0989999999997814 0.0 0.0
0.09999999999977847 0.0 0.0
0.1009999999997756 0.0 0.0
0.1019999999997726 0.0 0.0
0.1029999999997697 0.0 0.0
0.1039999999997668 0.0 0.0
0.1049999999997639 0.0 0.0
0.105999999999761 0.0 0.0
0.106999999999758 0.0 0.0
0.1079999999997551 0.0 0.0
0.1089999999997522 0.0 0.0
0.1099999999997493 0.0 0.0
0.1109999999997464 0.0 0.0
0.1119999999997434 0.0 0.0
0.1129999999997405 0.0 0.0
0.1139999999997376 0.0 0.0
0.1149999999997347 0.0 0.0
0.1159999999997318 0.0 0.0
0.1169999999997288 0.0 0.0
0.1179999999997259 0.0 0.0
0.118999999999723 0.0 0.0
0.1199999999997201 0.0 0.0
0.1209999999997172 0.0 0.0
0.1219999999997143 0.0 0.0
0.1229999999997113 0.0 0.0
0.1239999999997084 0.0 0.0
0.1249999999997055 0.0 0.0
0.1259999999997026 0.0 0.0
0.1269999999996997 0.0 0.0
0.1279999999996967 0.0 0.0
0.1289999999996938 0.0 0.0
0.1299999999996909 0.0 0.0
0.130999999999688 0.0 0.0
0.1319999999996851 0.0 0.0
0.1329999999996822 0.0 0.0
0.1339999999996792 0.0 0.0
0.1349999999996764 0.0 0.0
0.1359999999996734 0.0 0.0
0.1369999999996705 0.0 0.0
0.1379999999996676 0.0 0.0
0.1389999999996647 0.0 0.0
0.1399999999996618 0.0 0.0
0.1409999999996588 0.0 0.0
0.1419999999996559 0.0 0.0
0.142999999999653 0.0 0.0
0.1439999999996501 0.0 0.0
0.1449999999996472 0.0 0.0
0.1459999999996442 0.0 0.0
0.1469999999996414 0.0 0.0
0.1479999999996384 0.0 0.0
0.1489999999996355 0.0 0.0
0.1499999999996326 0.0 0.0
0.1509999999996297 0.0 0.0
0.1519999999996268 0.0 0.0
0.1529999999996239 0.0 0.0
0.1539999999996209 0.0 0.0
0.154999999999618 0.0 0.0
0.1559999999996151 0.0 0.0
0.1569999999996122 0.0 0.0
0.1579999999996093 0.0 0.0
0.1589999999996064 0.0 0.0
0.1599999999996035 0.0 0.0
0.1609999999996005 0.0 0.0
0.1619999999995976 0.0 0.0
0.1629999999995947 0.0 0.0
0.1639999999995918 0.0 0.0
0.1649999999995889 0.0 0.0
0.165999999999586 0.0 0.0
0.1669999999995831 0.0 0.0
0.1679999999995801 0.0 0.0
0.1689999999995772 0.0 0.0
0.1699999999995743 0.0 0.0
0.1709999999995714 0.0 0.0
0.1719999999995685 0.0 0.0
0.1729999999995655 0.0 0.0
0.1739999999995626 0.0 0.0
0.1749999999995597 0.0 0.0
0.1759999999995568 0.0 0.0
0.1769999999995539 0.0 0.0
0.177999999999551 0.0 0.0
0.178999999999548 0.0 0.0
0.1799999999995451 0.0 0.0
0.1809999999995422 0.0 0.0
0.1819999999995393 0.0 0.0
0.1829999999995364 0.0 0.0
0.1839999999995335 0.0 0.0
0.1849999999995305 0.0 0.0
0.1859999999995277 0.0 0.0
0.1869999999995247 0.0 0.0
0.1879999999995218 0.0 0.0
0.1889999999995189 0.0 0.0
0.189999999999516 0.0 0.0
0.1909999999995131 0.0 0.0
0.1919999999995101 0.0 0.0
0.1929999999995072 0.0 0.0
0.1939999999995043 0.0 0.0
0.1949999999995014 0.0 0.0
0.1959999999994985 0.0 0.0
0.1969999999994956 0.0 0.0
0.1979999999994927 0.0 0.0
0.1989999999994897 0.0 0.0
0.1999999999994868 0.0 0.0
0.2009999999994839 0.0 0.0
0.201999999999481 0.0 0.0
0.2029999999994781 0.0 0.0
0.2039999999994752 0.0 0.0
0.2049999999994722 0.0 0.0
0.2059999999994693 0.0 0.0
0.2069999999994664 0.0 0.0
0.2079999999994635 0.0 0.0
0.2089999999994606 0.0 0.0
0.2099999999994577 0.0 0.0
0.2109999999994548 0.0 0.0
0.2119999999994518 0.0 0.0
0.2129999999994489 0.0 0.0
0.213999999999446 0.0 0.0
0.2149999999994431 0.0 0.0
0.2159999999994402 0.0 0.0
0.2169999999994373 0.0 0.0
0.2179999999994343 0.0 0.0
0.2189999999994314 0.0 0.0
0.2199999999994285 0.0 0.0
0.2209999999994256 0.0 0.0
0.2219999999994227 0.0 0.0
0.2229999999994198 0.0 0.0
0.2239999999994168 0.0 0.0
0.2249999999994139 0.0 0.0
0.225999999999411 0.0 0.0
0.2269999999994081 0.0 0.0
0.2279999999994052 0.0 0.0
0.2289999999994023 0.0 0.0
0.2299999999993994 0.0 0.0
0.2309999999993964 0.0 0.0
0.2319999999993935 0.0 0.0
0.2329999999993906 0.0 0.0
0.2339999999993877 0.0 0.0
0.2349999999993848 0.0 0.0
0.2359999999993818 0.0 0.0
0.236999999999379 0.0 0.0
0.237999999999376 0.0 0.0
0.2389999999993731 0.0 0.0
0.2399999999993702 0.0 0.0
0.2409999999993673 0.0 0.0
0.2419999999993644 0.0 0.0
0.2429999999993615 0.0 0.0
0.2439999999993585 0.0 0.0
0.2449999999993556 0.0 0.0
0.2459999999993527 0.0 0.0
0.246999999999351 0.0 0.0
0.2479999999993495 0.0 0.0
0.248999999999348 0.0 0.0
0.2499999999993464 0.0 0.0
0.2509999999993477 0.0 0.0
0.2519999999993489 0.0 0.0
0.2529999999993502 0.0 0.0
0.2539999999993516 0.0 0.0
0.2549999999993542 0.0 0.0
0.2559999999993569 0.0 0.0
0.2569999999993595 0.0 0.0
0.2579999999993621 0.0 0.0
0.2589999999993647 0.0 0.0
0.2599999999993673 0.0 0.0
0.26099999999937 0.0 0.0
0.2619999999993726 0.0 0.0
0.2629999999993753 0.0 0.0
0.2639999999993779 0.0 0.0
0.2649999999993806 0.0 0.0
0.2659999999993832 0.0 0.0
0.2669999999993858 0.0 0.0
0.2679999999993884 0.0 0.0
0.2689999999993911 0.0 0.0
0.2699999999993937 0.0 0.0
0.2709999999993963 0.0 0.0
0.271999999999399 0.0 0.0
0.2729999999994017 0.0 0.0
0.2739999999994043 0.0 0.0
0.2749999999994069 0.0 0.0
0.2759999999994096 0.0 0.0
0.2769999999994122 0.0 0.0
0.2779999999994148 0.0 0.0
0.2789999999994174 0.0 0.0
0.2799999999994201 0.0 0.0
0.2809999999994228 0.0 0.0
0.2819999999994254 0.0 0.0
0.282999999999428 0.0 0.0
0.2839999999994306 0.0 0.0
0.2849999999994333 0.0 0.0
0.2859999999994359 0.0 0.0
0.2869999999994385 0.0 0.0
0.2879999999994411 0.0 0.0
0.2889999999994439 0.0 0.0
0.2899999999994465 0.0 0.0
0.2909999999994491 0.0 0.0
0.2919999999994517 0.0 0.0
0.2929999999994544 0.0 0.0
0.293999999999457 0.0 0.0
0.2949999999994596 0.0 0.0
0.2959999999994622 0.0 0.0
0.2969999999994649 0.0 0.0
0.2979999999994676 0.0 0.0
0.2989999999994702 0.0 0.0
0.2999999999994728 0.0 0.0
0.3009999999994754 0.0 0.0
0.3019999999994781 0.0 0.0
0.3029999999994807 0.0 0.0
0.3039999999994834 0.0 0.0
0.304999999999486 0.0 0.0
0.3059999999994886 0.0 0.0
0.3069999999994913 0.0 0.0
0.3079999999994939 0.0 0.0
0.3089999999994965 0.0 0.0
0.3099999999994992 0.0 0.0
0.3109999999995018 0.0 0.0
0.3119999999995045 0.0 0.0
0.3129999999995071 0.0 0.0
0.3139999999995097 0.0 0.0
0.3149999999995123 0.0 0.0
0.315999999999515 0.0 0.0
0.3169999999995176 0.0 0.0
0.3179999999995203 0.0 0.0
0.3189999999995229 0.0 0.0
0.3199999999995256 0.0 0.0
0.3209999999995282 0.0 0.0
0.3219999999995308 0.0 0.0
0.3229999999995334 0.0 0.0
0.323999999999536 0.0 0.0
0.3249999999995387 0.0 0.0
0.3259999999995414 0.0 0.0
0.326999999999544 0.0 0.0
0.3279999999995466 0.0 0.0
0.3289999999995493 0.0 0.0
0.3299999999995519 0.0 0.0
0.3309999999995545 0.0 0.0
0.3319999999995571 0.0 0.0
0.3329999999995598 0.0 0.0
0.3339999999995625 0.0 0.0
0.3349999999995651 0.0 0.0
0.3359999999995677 0.0 0.0
0.3369999999995703 0.0 0.0
0.337999999999573 0.0 0.0
0.3389999999995756 0.0 0.0
0.3399999999995783 0.0 0.0
0.3409999999995809 0.0 0.0
0.3419999999995835 0.0 0.0
0.3429999999995862 0.0 0.0
0.3439999999995888 0.0 0.0
0.3449999999995914 0.0 0.0
0.345999999999594 0.0 0.0
0.3469999999995967 0.0 0.0
0.3479999999995994 0.0 0.0
0.348999999999602 0.0 0.0
0.3499999999996046 0.0 0.0
0.3509999999996072 0.0 0.0
0.3519999999996099 0.0 0.0
0.3529999999996125 0.0 0.0
0.3539999999996151 0.0 0.0
0.3549999999996178 0.0 0.0
0.3559999999996205 0.0 0.0
0.3569999999996231 0.0 0.0
0.3579999999996257 0.0 0.0
0.3589999999996283 0.0 0.0
0.359999999999631 0.0 0.0
0.3609999999996336 0.0 0.0
0.3619999999996362 0.0 0.0
[...]
POINT_DATA 7930
SCALARS Disp float 2
LOOKUP_TABLE default
0.0 0.0010861624582446114
0.0 0.1
0.0 0.1
0.0 0.0
5.1812696732704964e-08 0.0
-6.789210663579448e-06 0.0010860341751104867
-1.3525246908124954e-05 0.0010852837672967325
-2.0266070860444908e-05 0.0010844263891515598
-2.733278258902298e-05 0.001083570735771118
-3.4327011804134817e-05 0.0010816121298836017
-4.0952573061117247e-05 0.0010782281794371293
-4.737946189377845e-05 0.001075736134511937
-5.433570091710091e-05 0.0010741846131542532
-6.164817358122173e-05 0.0010706044208715888
-6.841221424656857e-05 0.0010650479143636366
-7.460555752865105e-05 0.0010602139885725489
-8.139748692350527e-05 0.0010571763522735798
-8.882840332867132e-05 0.001052601380486639
-9.553164130987237e-05 0.0010452374256413666
-0.00010169129128972349 0.00103853154287045
-0.00010852028595209911 0.001034008497290864
-0.00011627870424652006 0.0010277252207803885
-0.0001233510072643041 0.0010179972861966147
-0.0001292503995561167 0.0010088321603538264
-0.0001359789071994232 0.0010027344034227105
-0.0001437368975291137 0.0009946759082831824
-0.00015087446850851918 0.0009825938718247772
-0.00015679869828842495 0.0009710264228861769
-0.00016326572703404278 0.0009627919595781985
-0.00017115419036596054 0.000953324232301228
-0.0001784413029905101 0.0009385522397504954
-0.0001844459624050553 0.0009241132003640723
-0.0001907958779399534 0.0009131253322579847
-0.00019835330409717422 0.0009010041974166979
-0.00020574967638382089 0.0008838063266168771
-0.00021172533904310903 0.0008662067669357379
-0.00021796202916461166 0.000852555167229921
-0.0002256950448848036 0.0008379368622058918
-0.00023283670339108083 0.0008175641161583704
-0.00023899111768018095 0.00079626361988671
-0.00024527508476403004 0.0007787775847491688
-0.0002528692582335262 0.0007603446460239287
-0.00026060415001135615 0.000735435753798999
-0.00026644699076781614 0.0007087693930943215
-0.0002723445291764902 0.0006863103537708532
-0.00027994482316367114 0.0006628523182019608
-0.0002869825666181979 0.0006322006064214723
-0.0002930470922347145 0.0005987026287652915
-0.0002991594493717636 0.0005682860268183642
-0.0003065657495084868 0.0005363125300352626
-0.00031484230909613987 0.0004950007250765055
-0.00032091481512900346 0.00044776859934979297
-0.0003258555941793923 0.00040064822014398857
-0.0003331437049706502 0.0003462207763278042
-0.000337856765127032 0.00027468457699577123
-0.0003366401100324866 0.0001754867345530597
-0.0003142117837009495 0.0
-0.0002813944688628911 0.0
-0.00025797855695511475 0.0
-0.0002417278644524039 0.0
-0.00022875324213123926 0.0
-0.0002176779703015484 0.0
-0.00020797216810881718 0.0
-0.00019949927695273734 0.0
-0.0001919374726102626 0.0
-0.00018500942057808736 0.0
-0.00017869128483708404 0.0
-0.00017284863307821745 0.0
-0.00016739567656097394 0.0
-0.00016231554677447155 0.0
-0.0001575820321504214 0.0
-0.0001531176682356585 0.0
-0.00014890081879566496 0.0
-0.0001449264503385152 0.0
-0.00014117169524489954 0.0
-0.00013758527372733075 0.0
-0.00013417308578087583 0.0
-0.00013091529614992422 0.0
-0.00012778187099466397 0.0
-0.00012478543426516545 0.0
-0.00012191659301609508 0.0
-0.00011916010191146201 0.0
-0.00011651088724384013 0.0
-0.00011394622474198152 0.0
-0.00011147752023611369 0.0
-0.00010909667641358884 0.0
-0.00010679164972754918 0.0
-0.00010456211956140816 0.0
-0.00010241448336683224 0.0
-0.00010032751779153171 0.0
-9.83026006885689e-05 0.0
-9.634603422011416e-05 0.0
-9.445090621661552e-05 0.0
-9.261726987158093e-05 0.0
-9.083487656356391e-05 0.0
-8.910557230882671e-05 0.0
-8.742611610926722e-05 0.0
-8.579176912614662e-05 0.0
-8.420215581160422e-05 0.0
-8.265828294829089e-05 0.0
-8.11536257660801e-05 0.0
-7.968146877906377e-05 0.0
-7.824493356400857e-05 0.0
-7.683731712703637e-05 0.0
-7.54649582535839e-05 0.0
-7.412103237572606e-05 0.0
-7.280874382215381e-05 0.0
-7.152515308079318e-05 0.0
-7.026928137794041e-05 0.0
-6.903953362867247e-05 0.0
-6.782881746426661e-05 0.0
-6.664693777851538e-05 0.0
-6.549702151410881e-05 0.0
-6.435527130478966e-05 0.0
-6.324281349888131e-05 0.0
-6.21536485183238e-05 0.0
-6.108283684398501e-05 0.0
-6.003396049505493e-05 0.0
-5.900587493751727e-05 0.0
-5.799541529188799e-05 0.0
-5.700506147968368e-05 0.0
-5.6034945232156604e-05 0.0
-5.508373662686031e-05 0.0
-5.415501141542426e-05 0.0
-5.323303509011631e-05 0.0
-5.2334105324122e-05 0.0
-5.144938076924038e-05 0.0
-5.058338717324872e-05 0.0
-4.972888791568192e-05 0.0
-4.8891403905748654e-05 0.0
-4.806835671624897e-05 0.0
-4.7259715997089223e-05 0.0
-4.646466611097321e-05 0.0
-4.568367344644679e-05 0.0
-4.491599145047675e-05 0.0
-4.416107469552458e-05 0.0
-4.34183973859946e-05 0.0
-4.2689436556373954e-05 0.0
-4.1974319027519986e-05 0.0
-4.126551551640815e-05 0.0
-4.057038131344341e-05 0.0
-3.988487012060831e-05 0.0
-3.920985444228783e-05 0.0
-3.854412161837884e-05 0.0
-3.7887765425352845e-05 0.0
-3.724105169927882e-05 0.0
-3.660338414700894e-05 0.0
-3.5974398299913225e-05 0.0
-3.535287432369042e-05 0.0
-3.47399144382371e-05 0.0
-3.413523612414906e-05 0.0
-3.3538104549994336e-05 0.0
-3.294906178305634e-05 0.0
-3.236758259848254e-05 0.0
-3.179327513709627e-05 0.0
-3.1226550316436933e-05 0.0
-3.0667506445978466e-05 0.0
-3.0115559777327256e-05 0.0
-2.9570804599997674e-05 0.0
-2.9034183560178664e-05 0.0
-2.8505974113892955e-05 0.0
-2.7983360118891124e-05 0.0
-2.747014399677347e-05 0.0
-2.696395600242344e-05 0.0
-2.6465464930349223e-05 0.0
-2.597530802421685e-05 0.0
-2.5490259704880883e-05 0.0
-2.5014028038464713e-05 0.0
-2.454512003786723e-05 0.0
-2.4083279635100746e-05 0.0
-2.3628466449153735e-05 0.0
-2.3180372257660696e-05 0.0
-2.2738532666084558e-05 0.0
-2.2302756447954583e-05 0.0
-2.18731114629654e-05 0.0
-2.1449012898095556e-05 0.0
-2.1030111745319693e-05 0.0
-2.0616827139054034e-05 0.0
-2.020886612858019e-05 0.0
-1.980548978870591e-05 0.0
-1.940659856035823e-05 0.0
-1.9012360515714992e-05 0.0
-1.8622589050868676e-05 0.0
-1.823638512701877e-05 0.0
-1.785417684569586e-05 0.0
-1.7476007915533223e-05 0.0
-1.71013637099625e-05 0.0
-1.67302740706923e-05 0.0
-1.6362803234061533e-05 0.0
-1.5999201390036213e-05 0.0
-1.563890734518199e-05 0.0
-1.528226272790995e-05 0.0
-1.4929296889366041e-05 0.0
-1.4580017829366709e-05 0.0
-1.423458390474751e-05 0.0
-1.3893184207788218e-05 0.0
-1.3555485257065589e-05 0.0
-1.3221792651822288e-05 0.0
-1.2892021496732687e-05 0.0
-1.2566533840142777e-05 0.0
-1.2245475356286028e-05 0.0
-1.1928392710843711e-05 0.0
-1.1615513126617234e-05 0.0
-1.1307040744496876e-05 0.0
-1.1002688376992573e-05 0.0
-1.0702578837876487e-05 0.0
-1.0406733796626533e-05 0.0
-1.0115271228066386e-05 0.0
-9.827927701503856e-06 0.0
-9.544990816428107e-06 0.0
-9.265312627746789e-06 0.0
-8.989602885482368e-06 0.0
-8.717623032649282e-06 0.0
-8.449468354220712e-06 0.0
-8.184789833093175e-06 0.0
-7.923579375899343e-06 0.0
-7.665605298246747e-06 0.0
-7.410626974884564e-06 0.0
-7.158727265042114e-06 0.0
-6.910168745011797e-06 0.0
-6.6634417968301075e-06 0.0
-6.419740837804591e-06 0.0
-6.178723303709817e-06 0.0
-5.939966621273844e-06 0.0
-5.703554304230517e-06 0.0
-5.4695192080046325e-06 0.0
-5.237669378035429e-06 0.0
-5.007905029630558e-06 0.0
-4.780327468005975e-06 0.0
-4.554900340298238e-06 0.0
-4.331588128415188e-06 0.0
-4.110492914823508e-06 0.0
-3.891502827221442e-06 0.0
-3.674665478272369e-06 0.0
-3.460036607590325e-06 0.0
-3.247627436583489e-06 0.0
-3.037456927175961e-06 0.0
-2.829672280994954e-06 0.0
-2.624388089650082e-06 0.0
-2.421493151482962e-06 0.0
-2.221246024721043e-06 0.0
-2.02354199074202e-06 0.0
-1.828674506879937e-06 0.0
-1.636583545843273e-06 0.0
-1.4472372078280893e-06 0.0
-1.2608045151971444e-06 0.0
-1.0773364797408575e-06 0.0
-8.967310240107582e-07 0.0
-7.191385559799643e-07 0.0
-5.447156592849481e-07 0.0
-3.7341765031050673e-07 0.0
-2.0528341528021499e-07 0.0
-4.023648895919385e-08 0.0
1.2150651737254854e-07 0.0
2.8000553105793157e-07 0.0
4.3541876425235127e-07 0.0
5.876200246885821e-07 0.0
7.365406378040371e-07 0.0
8.824904600393142e-07 0.0
1.0252778963625375e-06 0.0
1.1650475471408369e-06 0.0
1.3016568249750093e-06 0.0
1.4351940673429611e-06 0.0
1.5656880179731508e-06 0.0
1.6932484013079393e-06 0.0
1.8178861710221164e-06 0.0
1.9397070102334627e-06 0.0
2.0586807615902336e-06 0.0
2.174862967364526e-06 0.0
2.2884262244136572e-06 0.0
2.3992266465787307e-06 0.0
2.507318389662881e-06 0.0
2.612841072524335e-06 0.0
2.715627660345443e-06 0.0
2.8163879504108533e-06 0.0
2.9143683388381596e-06 0.0
3.009719330928792e-06 0.0
3.1028427032375557e-06 0.0
3.1933807906097208e-06 0.0
3.281565707155138e-06 0.0
3.367185695358445e-06 0.0
3.4503793389784737e-06 0.0
3.531272878222411e-06 0.0
3.609685194812927e-06 0.0
3.6858265506306536e-06 0.0
3.7593852255067307e-06 0.0
3.830380007938483e-06 0.0
3.899109124011856e-06 0.0
3.965350305255322e-06 0.0
4.029265841733776e-06 0.0
4.090721726621267e-06 0.0
4.149563770194234e-06 0.0
4.2059980600684845e-06 0.0
4.259850014653549e-06 0.0
4.311421873822524e-06 0.0
4.360489859123003e-06 0.0
4.407136670106333e-06 0.0
4.451091116927441e-06 0.0
4.492509569691209e-06 0.0
4.531674894414485e-06 0.0
4.5682994726221895e-06 0.0
4.602468593311748e-06 0.0
4.634191971057798e-06 0.0
4.663523006429469e-06 0.0
4.69042957865997e-06 0.0
4.715059466001918e-06 0.0
4.737310951685658e-06 0.0
4.757288316935597e-06 0.0
4.775002864882909e-06 0.0
4.790496458094832e-06 0.0
4.803855628043986e-06 0.0
4.815085645345066e-06 0.0
4.824428644059651e-06 0.0
4.8317675905600756e-06 0.0
4.837125348214476e-06 0.0
4.840559078383372e-06 0.0
4.842166389973554e-06 0.0
4.842216486632e-06 0.0
4.840558650820832e-06 0.0
4.837326507254625e-06 0.0
4.83256933170225e-06 0.0
4.826264454432989e-06 0.0
4.818534087248163e-06 0.0
4.8094911155629545e-06 0.0
4.79933106696349e-06 0.0
4.787936792716037e-06 0.0
4.775389150018798e-06 0.0
4.761889886753758e-06 0.0
4.7473792136416795e-06 0.0
4.731891894142637e-06 0.0
4.715581925857106e-06 0.0
4.698405171107599e-06 0.0
4.680491576540759e-06 0.0
4.661850144439352e-06 0.0
4.642513211001058e-06 0.0
4.6225938135318544e-06 0.0
4.602086662392292e-06 0.0
4.581049539360188e-06 0.0
4.559496134290955e-06 0.0
4.537480053081615e-06 0.0
4.515029599749417e-06 0.0
4.492175933366991e-06 0.0
4.468937912395603e-06 0.0
4.445302739332623e-06 0.0
4.421303732619387e-06 0.0
4.396956526687405e-06 0.0
4.372278473871392e-06 0.0
4.347271198973008e-06 0.0
4.321926281994141e-06 0.0
4.296223934480396e-06 0.0
4.270225328314602e-06 0.0
4.243877407252172e-06 0.0
4.217217586288195e-06 0.0
4.190254820322414e-06 0.0
4.162906211939457e-06 0.0
4.135172917031018e-06 0.0
4.107121831301232e-06 0.0
4.0786702997304e-06 0.0
4.049855561624912e-06 0.0
4.020635826623051e-06 0.0
3.990959458810004e-06 0.0
3.960904527771822e-06 0.0
3.930406966763938e-06 0.0
3.899465970303878e-06 0.0
3.868097461476297e-06 0.0
3.836232464648928e-06 0.0
3.8038690600458475e-06 0.0
3.7710342889683313e-06 0.0
3.7376912696070992e-06 0.0
3.703842571915343e-06 0.0
3.669484651729675e-06 0.0
3.6345989082272456e-06 0.0
3.599189526827872e-06 0.0
3.563256019376414e-06 0.0
3.526809237835162e-06 0.0
3.4898393282708057e-06 0.0
3.4523349961238903e-06 0.0
3.4143054036759855e-06 0.0
3.3757623218136704e-06 0.0
3.3367075609547654e-06 0.0
3.297156292994154e-06 0.0
3.2571042251852276e-06 0.0
3.2165778760925346e-06 0.0
3.1756198338779187e-06 0.0
3.134193023829162e-06 0.0
3.0923048764238455e-06 0.0
3.0500267743194843e-06 0.0
3.0073722247293744e-06 0.0
2.964314610350963e-06 0.0
2.920895076539529e-06 0.0
2.8771554553235353e-06 0.0
2.8331109353961785e-06 0.0
2.7887808790531345e-06 0.0
2.744202640693289e-06 0.0
2.699382632784021e-06 0.0
2.654350729179223e-06 0.0
2.6091515175180184e-06 0.0
2.563805027297242e-06 0.0
2.5183376148427046e-06 0.0
2.4727824012607623e-06 0.0
2.4271633606150275e-06 0.0
2.381513609122833e-06 0.0
2.3358622285036023e-06 0.0
2.2902422836201673e-06 0.0
2.244684444922608e-06 0.0
2.1992101600280402e-06 0.0
2.1538549088644125e-06 0.0
2.108648715029508e-06 0.0
2.0636217870214363e-06 0.0
2.0187973042781267e-06 0.0
1.974206581527303e-06 0.0
1.9298758409098874e-06 0.0
1.8858351053163136e-06 0.0
1.8421029548788772e-06 0.0
1.7987103967723908e-06 0.0
1.7556756021428631e-06 0.0
1.7130210736257122e-06 0.0
1.6707812637476028e-06 0.0
1.628973889875426e-06 0.0
1.587615044982132e-06 0.0
1.5467348058967621e-06 0.0
1.5063465750709074e-06 0.0
1.466455938596341e-06 0.0
1.4270958007340801e-06 0.0
1.3882700472728494e-06 0.0
1.3500010481546218e-06 0.0
1.3123108561502004e-06 0.0
1.275200576585471e-06 0.0
1.2386522924244212e-06 0.0
1.2027427548826568e-06 0.0
1.1674461445128517e-06 0.0
1.1327843911040735e-06 0.0
1.0987382987007935e-06 0.0
1.065326277658236e-06 0.0
1.0325595344608321e-06 0.0
1.0004380245054524e-06 0.0
9.689610780492628e-07 0.0
9.381311940845899e-07 0.0
9.079635559170259e-07 0.0
8.784628894564363e-07 0.0
8.496237703045647e-07 0.0
8.214425518331363e-07 0.0
7.939243022091734e-07 0.0
7.670612394845885e-07 0.0
7.408181142989879e-07 0.0
7.152491848803693e-07 0.0
6.903345326076595e-07 0.0
6.660664924023608e-07 0.0
6.424247842010884e-07 0.0
6.194259483734652e-07 0.0
5.97013452799536e-07 0.0
5.752502397245845e-07 0.0
5.540916234308741e-07 0.0
5.335272842279076e-07 0.0
5.135661512171118e-07 0.0
4.941850040962099e-07 0.0
4.753704542710396e-07 0.0
4.5712190715095566e-07 0.0
4.39429212033982e-07 0.0
4.2228279035432823e-07 0.0
4.056993062192205e-07 0.0
3.8961085229191373e-07 0.0
3.7405365566999323e-07 0.0
3.590005642051379e-07 0.0
3.444483378815989e-07 0.0
3.3039128994731874e-07 0.0
3.1680996986423845e-07 0.0
3.036824283141389e-07 0.0
2.909922984354604e-07 0.0
2.7875910399920333e-07 0.0
2.669844534104771e-07 0.0
2.5563630544553496e-07 0.0
2.446652124656926e-07 0.0
2.3410288097193982e-07 0.0
2.2392254667207682e-07 0.0
2.1412394898622035e-07 0.0
2.0469027424091116e-07 0.0
1.956192926351731e-07 0.0
1.8689604243385417e-07 0.0
1.7849783415732964e-07 0.0
1.7043928586023322e-07 0.0
1.6270163204712779e-07 0.0
1.5527839109639331e-07 0.0
1.4814401417930322e-07 0.0
1.4129526618366883e-07 0.0
1.3472257315870615e-07 0.0
1.284238927026286e-07 0.0
1.224008585706423e-07 0.0
1.1660848526668236e-07 0.0
1.1106485935072046e-07 0.0
1.057574994807469e-07 0.0
1.0067281366249367e-07 0.0
9.581924853260728e-08 0.0
9.11634777337012e-08 0.0
8.670775741901857e-08 0.0
8.245328462298028e-08 0.0
7.838851550260859e-08 0.0
7.449887111430951e-08 0.0
7.078641420082909e-08 0.0
6.724210102172438e-08 0.0
6.38625240979939e-08 0.0
6.063404723470896e-08 0.0
5.754627356237316e-08 0.0
5.4611277901951365e-08 0.0
4.904905165818659e-08 0.0
4.619965415878225e-08 0.0
4.327156418165969e-08 0.0
4.028033282965835e-08 0.0
3.724629886372678e-08 0.0
3.4185546975332326e-08 0.0
3.112078268666767e-08 0.0
2.807856550203885e-08 0.0
2.5084242056539005e-08 0.0
2.21650112030489e-08 0.0
1.9354076623372796e-08 0.0
1.6669585808837303e-08 0.0
1.4152819829121807e-08 0.0
1.1815402421930288e-08 0.0
9.680154022332933e-09 0.0
7.780832074249753e-09 0.0
6.120979318827209e-09 0.0
4.685832990854855e-09 0.0
3.5037603766437245e-09 0.0
2.5335773139213887e-09 0.0
1.7683520247640728e-09 0.0
1.1864867674741122e-09 0.0
7.705739814953276e-10 0.0
4.695587713499472e-10 0.0
2.748767302444106e-10 0.0
1.495731568881832e-10 0.0
7.659032577455646e-11 0.0
3.662798046577858e-11 0.0
1.5924438447750418e-11 0.0
6.376307109055823e-12 0.0
2.2852985339586766e-12 0.0
7.174934462147511e-13 0.0
1.9038463596823242e-13 0.0
4.475381238697172e-14 0.0
8.349247567574277e-15 0.0
1.1432789299984638e-15 0.0
1.0572776898413987e-16 0.0
3.5972409708736623e-19 0.0
-3.0919098474762814e-18 0.0
2.4869665243229446e-18 0.0
3.748824208668978e-18 0.0
1.2394767412354986e-17 0.0
2.6216797202480155e-17 0.0
3.4625308406155557e-17 0.0
6.587249831014059e-17 0.0
4.225795344376994e-17 0.0
3.018398642718962e-17 0.0
3.1758506375842285e-17 0.0
4.31347935106291e-17 0.0
4.914845802188991e-17 0.0
1.0839142732939912e-16 0.0
1.88165512487441e-17 0.0
9.05990897686107e-18 0.0
5.477350003654341e-17 0.0
-5.3255644073421815e-18 0.0
-4.796704559555904e-17 0.0
-2.4861666757985027e-17 0.0
4.296214275671629e-17 0.0
7.169372884093665e-17 0.0
7.849243924993611e-17 0.0
1.1140543473474782e-16 0.0
2.0360131212246666e-16 0.0
8.399016192228337e-17 0.0
-3.441028717531184e-17 0.0
8.957164467900697e-17 0.0
-1.3534375007461706e-16 0.0
1.650351885940623e-16 0.0
6.927348370737361e-17 0.0
-1.6964855035787619e-16 0.0
3.4097207699889634e-16 0.0
-1.3286247149778242e-16 0.0
1.6074329859178194e-16 0.0
-6.933882888522388e-17 0.0
-1.7259684033580333e-16 0.0
5.38331378452202e-16 0.0
-5.3989369355797814e-18 0.0
-3.229466270956855e-16 0.0
1.4335631386451645e-16 0.0
-1.778302285625239e-16 0.0
0.0 0.009234165287259503
0.0 0.022109785930452028
0.0 0.040062852071509156
0.0 0.06509563926320285
-2.2798359241141605e-16 0.1
-3.6465911651867173e-16 0.1
4.506915891701704e-15 0.1
-5.220449573052974e-15 0.1
0.0 0.09234095951662857
0.0 0.085267794437028
0.0 0.0787356878349797
0.0 0.07270325358168614
0.0 0.06713226878995264
0.0 0.0619874333109236
0.0 0.05723615233795361
0.0 0.05284831692952343
0.0 0.04879612844994717
0.0 0.04505391065783986
0.0 0.0415979528271241
0.0 0.038406357242572214
0.0 0.035458901718223114
0.0 0.032736910873328376
0.0 0.0302231377360323
0.0 0.02790165483820604
0.0 0.025757753001960638
0.0 0.023777848352113135
0.0 0.02194939580780417
0.0 0.020260810255895465
0.0 0.018701392223652535
0.0 0.017261261595035056
0.0 0.015931293336681307
0.0 0.014703060372940757
0.0 0.013568780782904325
0.0 0.012521267482861089
0.0 0.011553883413523513
0.0 0.010660499143843177
0.0 0.009835453922830984
0.0 0.009073520329630887
0.0 0.008369870608899602
0.0 0.007720046302119605
0.0 0.007119930020870223
0.0 0.0065657194609701685
0.0 0.0060539032042334125
0.0 0.005581237505336534
0.0 0.005144721156739332
0.0 0.00474198637306318
0.0 0.004372209492426462
0.0 0.004034005956347362
0.0 0.0037233168080595238
0.0 0.003438728110882449
0.0 0.003178670080955946
0.0 0.002940872688956507
0.0 0.0027251054647647395
0.0 0.0025290421292166313
0.0 0.002350662498592082
0.0 0.0021896583283011976
0.0 0.002043682830559282
0.0 0.0019121204718688973
0.0 0.0017946724005225905
0.0 0.0016896319888319556
0.0 0.0015963098386874116
0.0 0.0015140296243490786
0.0 0.001441743640697747
0.0 0.0013791949946359585
0.0 0.0013252927036603046
0.0 0.0012795830062050483
0.0 0.0012413082282049035
0.0 0.0012097784798499138
0.0 0.0011841665907946274
0.0 0.001164090667119409
0.0 0.0011489347172891032
0.0 0.0011369485810550331
0.0 0.0011287173112391063
0.0 0.0011220174417952262
0.0 0.0011176748371507874
0.0 0.0011148279244232152
0.0 0.0011127989617906219
0.0 0.001111421967760966
0.0 0.0011101808626124007
0.0 0.0011091746588828657
0.0 0.0011080208885317876
0.0 0.0011067276907828988
0.0 0.0011051503399731918
0.0 0.0011034805385702602
0.0 0.0011016418714659866
0.0 0.0010996771540402895
0.0 0.001097603668158494
0.0 0.0010953046372910173
0.0 0.0010929770956397229
0.0 0.001090649550410139
0.0 0.0010884206582844926
3.0479397979095784e-13 0.004927245136389407
5.0299024725350965e-06 0.0027779556377676867
4.328111915430872e-05 0.0015690054388058795
6.706246362343712e-05 0.0010282067207855214
1.018136792880369e-05 0.0014055402825158294
8.110768337672663e-10 0.002259785573841328
9.146865560359764e-05 0.0008274029670498538
8.67214923099043e-07 0.001286987378330157
1.607847473525083e-05 0.0007918655427222065
9.749908267846976e-06 0.000765307591595729
6.5129111757561865e-06 0.0007092169688176089
3.1320612689699156e-06 0.0006770512235742688
9.421413782343594e-17 0.014973736461408057
4.6715200299870437e-07 0.000665786300955511
1.059385301507702e-05 0.0005030851875652777
-8.566476533402594e-06 0.0004490138626800883
6.336145443703348e-10 0.0011704182476520947
5.981830456900598e-05 0.0009328869725376256
-7.899649084819517e-06 0.0003905593672710412
-1.5621274518306552e-07 0.00041956998651032824
4.0269341840291784e-06 0.0003972250213983574
5.479191362909171e-06 0.00037616942235849343
4.861934953545741e-06 0.00037782725778805014
2.1320398659287578e-08 0.0006415016992799178
3.6398637187403246e-06 0.00035256901022611456
1.8653059416712472e-06 0.0003913026617541032