# vtk DataFile Version 3.0
Some data
ASCII
DATASET UNSTRUCTURED_GRID
POINTS 7930 float
0.0 0.0 0.0
0.0 10.0 0.0
10.0 10.0 0.0
10.0 0.0 0.0
0.5 0.0 0.0
0.0009999999999981016 0.0 0.0
0.001999999999996203 0.0 0.0
0.002999999999994305 0.0 0.0
0.003999999999992409 0.0 0.0
0.004999999999990531 0.0 0.0
0.005999999999988653 0.0 0.0
0.006999999999986775 0.0 0.0
0.007999999999984898 0.0 0.0
0.008999999999983018 0.0 0.0
0.009999999999981142 0.0 0.0
0.01099999999997926 0.0 0.0
0.01199999999997736 0.0 0.0
0.0129999999999754 0.0 0.0
0.01399999999997343 0.0 0.0
0.01499999999997147 0.0 0.0
0.01599999999996944 0.0 0.0
0.0169999999999673 0.0 0.0
0.01799999999996516 0.0 0.0
0.01899999999996302 0.0 0.0
0.01999999999996084 0.0 0.0
0.02099999999995862 0.0 0.0
0.02199999999995639 0.0 0.0
0.02299999999995417 0.0 0.0
0.02399999999995195 0.0 0.0
0.02499999999994972 0.0 0.0
0.0259999999999475 0.0 0.0
0.02699999999994527 0.0 0.0
0.02799999999994315 0.0 0.0
0.0289999999999411 0.0 0.0
0.02999999999993905 0.0 0.0
0.030999999999937 0.0 0.0
0.03199999999993521 0.0 0.0
0.0329999999999335 0.0 0.0
0.0339999999999318 0.0 0.0
0.03499999999993009 0.0 0.0
0.03599999999992853 0.0 0.0
0.036999999999927 0.0 0.0
0.03799999999992547 0.0 0.0
0.03899999999992394 0.0 0.0
0.03999999999992241 0.0 0.0
0.04099999999992088 0.0 0.0
0.04199999999991934 0.0 0.0
0.04299999999991782 0.0 0.0
0.04399999999991629 0.0 0.0
0.04499999999991475 0.0 0.0
0.04599999999991322 0.0 0.0
0.0469999999999117 0.0 0.0
0.04799999999991016 0.0 0.0
0.04899999999990863 0.0 0.0
0.0499999999999071 0.0 0.0
0.05099999999990557 0.0 0.0
0.05199999999990404 0.0 0.0
0.05299999999990251 0.0 0.0
0.05399999999990097 0.0 0.0
0.05499999999989943 0.0 0.0
0.05599999999989791 0.0 0.0
0.05699999999989638 0.0 0.0
0.05799999999989484 0.0 0.0
0.05899999999989317 0.0 0.0
0.05999999999989129 0.0 0.0
0.06099999999988941 0.0 0.0
0.06199999999988753 0.0 0.0
0.06299999999988531 0.0 0.0
0.06399999999988273 0.0 0.0
0.06499999999988015 0.0 0.0
0.06599999999987759 0.0 0.0
0.0669999999998748 0.0 0.0
0.06799999999987189 0.0 0.0
0.06899999999986897 0.0 0.0
0.06999999999986604 0.0 0.0
0.07099999999986313 0.0 0.0
0.0719999999998602 0.0 0.0
0.07299999999985729 0.0 0.0
0.07399999999985438 0.0 0.0
0.07499999999985145 0.0 0.0
0.07599999999984854 0.0 0.0
0.07699999999984562 0.0 0.0
0.0779999999998427 0.0 0.0
0.07899999999983978 0.0 0.0
0.07999999999983685 0.0 0.0
0.08099999999983394 0.0 0.0
0.08199999999983103 0.0 0.0
0.0829999999998281 0.0 0.0
0.08399999999982519 0.0 0.0
0.08499999999982226 0.0 0.0
0.08599999999981935 0.0 0.0
0.08699999999981643 0.0 0.0
0.0879999999998135 0.0 0.0
0.08899999999981059 0.0 0.0
0.08999999999980766 0.0 0.0
0.09099999999980475 0.0 0.0
0.09199999999980184 0.0 0.0
0.09299999999979891 0.0 0.0
0.093999999999796 0.0 0.0
0.09499999999979307 0.0 0.0
0.09599999999979016 0.0 0.0
0.09699999999978724 0.0 0.0
0.09799999999978432 0.0 0.0
0.0989999999997814 0.0 0.0
0.09999999999977847 0.0 0.0
0.1009999999997756 0.0 0.0
0.1019999999997726 0.0 0.0
0.1029999999997697 0.0 0.0
0.1039999999997668 0.0 0.0
0.1049999999997639 0.0 0.0
0.105999999999761 0.0 0.0
0.106999999999758 0.0 0.0
0.1079999999997551 0.0 0.0
0.1089999999997522 0.0 0.0
0.1099999999997493 0.0 0.0
0.1109999999997464 0.0 0.0
0.1119999999997434 0.0 0.0
0.1129999999997405 0.0 0.0
0.1139999999997376 0.0 0.0
0.1149999999997347 0.0 0.0
0.1159999999997318 0.0 0.0
0.1169999999997288 0.0 0.0
0.1179999999997259 0.0 0.0
0.118999999999723 0.0 0.0
0.1199999999997201 0.0 0.0
0.1209999999997172 0.0 0.0
0.1219999999997143 0.0 0.0
0.1229999999997113 0.0 0.0
0.1239999999997084 0.0 0.0
0.1249999999997055 0.0 0.0
0.1259999999997026 0.0 0.0
0.1269999999996997 0.0 0.0
0.1279999999996967 0.0 0.0
0.1289999999996938 0.0 0.0
0.1299999999996909 0.0 0.0
0.130999999999688 0.0 0.0
0.1319999999996851 0.0 0.0
0.1329999999996822 0.0 0.0
0.1339999999996792 0.0 0.0
0.1349999999996764 0.0 0.0
0.1359999999996734 0.0 0.0
0.1369999999996705 0.0 0.0
0.1379999999996676 0.0 0.0
0.1389999999996647 0.0 0.0
0.1399999999996618 0.0 0.0
0.1409999999996588 0.0 0.0
0.1419999999996559 0.0 0.0
0.142999999999653 0.0 0.0
0.1439999999996501 0.0 0.0
0.1449999999996472 0.0 0.0
0.1459999999996442 0.0 0.0
0.1469999999996414 0.0 0.0
0.1479999999996384 0.0 0.0
0.1489999999996355 0.0 0.0
0.1499999999996326 0.0 0.0
0.1509999999996297 0.0 0.0
0.1519999999996268 0.0 0.0
0.1529999999996239 0.0 0.0
0.1539999999996209 0.0 0.0
0.154999999999618 0.0 0.0
0.1559999999996151 0.0 0.0
0.1569999999996122 0.0 0.0
0.1579999999996093 0.0 0.0
0.1589999999996064 0.0 0.0
0.1599999999996035 0.0 0.0
0.1609999999996005 0.0 0.0
0.1619999999995976 0.0 0.0
0.1629999999995947 0.0 0.0
0.1639999999995918 0.0 0.0
0.1649999999995889 0.0 0.0
0.165999999999586 0.0 0.0
0.1669999999995831 0.0 0.0
0.1679999999995801 0.0 0.0
0.1689999999995772 0.0 0.0
0.1699999999995743 0.0 0.0
0.1709999999995714 0.0 0.0
0.1719999999995685 0.0 0.0
0.1729999999995655 0.0 0.0
0.1739999999995626 0.0 0.0
0.1749999999995597 0.0 0.0
0.1759999999995568 0.0 0.0
0.1769999999995539 0.0 0.0
0.177999999999551 0.0 0.0
0.178999999999548 0.0 0.0
0.1799999999995451 0.0 0.0
0.1809999999995422 0.0 0.0
0.1819999999995393 0.0 0.0
0.1829999999995364 0.0 0.0
0.1839999999995335 0.0 0.0
0.1849999999995305 0.0 0.0
0.1859999999995277 0.0 0.0
0.1869999999995247 0.0 0.0
0.1879999999995218 0.0 0.0
0.1889999999995189 0.0 0.0
0.189999999999516 0.0 0.0
0.1909999999995131 0.0 0.0
0.1919999999995101 0.0 0.0
0.1929999999995072 0.0 0.0
0.1939999999995043 0.0 0.0
0.1949999999995014 0.0 0.0
0.1959999999994985 0.0 0.0
0.1969999999994956 0.0 0.0
0.1979999999994927 0.0 0.0
0.1989999999994897 0.0 0.0
0.1999999999994868 0.0 0.0
0.2009999999994839 0.0 0.0
0.201999999999481 0.0 0.0
0.2029999999994781 0.0 0.0
0.2039999999994752 0.0 0.0
0.2049999999994722 0.0 0.0
0.2059999999994693 0.0 0.0
0.2069999999994664 0.0 0.0
0.2079999999994635 0.0 0.0
0.2089999999994606 0.0 0.0
0.2099999999994577 0.0 0.0
0.2109999999994548 0.0 0.0
0.2119999999994518 0.0 0.0
0.2129999999994489 0.0 0.0
0.213999999999446 0.0 0.0
0.2149999999994431 0.0 0.0
0.2159999999994402 0.0 0.0
0.2169999999994373 0.0 0.0
0.2179999999994343 0.0 0.0
0.2189999999994314 0.0 0.0
0.2199999999994285 0.0 0.0
0.2209999999994256 0.0 0.0
0.2219999999994227 0.0 0.0
0.2229999999994198 0.0 0.0
0.2239999999994168 0.0 0.0
0.2249999999994139 0.0 0.0
0.225999999999411 0.0 0.0
0.2269999999994081 0.0 0.0
0.2279999999994052 0.0 0.0
0.2289999999994023 0.0 0.0
0.2299999999993994 0.0 0.0
0.2309999999993964 0.0 0.0
0.2319999999993935 0.0 0.0
0.2329999999993906 0.0 0.0
0.2339999999993877 0.0 0.0
0.2349999999993848 0.0 0.0
0.2359999999993818 0.0 0.0
0.236999999999379 0.0 0.0
0.237999999999376 0.0 0.0
0.2389999999993731 0.0 0.0
0.2399999999993702 0.0 0.0
0.2409999999993673 0.0 0.0
0.2419999999993644 0.0 0.0
0.2429999999993615 0.0 0.0
0.2439999999993585 0.0 0.0
0.2449999999993556 0.0 0.0
0.2459999999993527 0.0 0.0
0.246999999999351 0.0 0.0
0.2479999999993495 0.0 0.0
0.248999999999348 0.0 0.0
0.2499999999993464 0.0 0.0
0.2509999999993477 0.0 0.0
0.2519999999993489 0.0 0.0
0.2529999999993502 0.0 0.0
0.2539999999993516 0.0 0.0
0.2549999999993542 0.0 0.0
0.2559999999993569 0.0 0.0
0.2569999999993595 0.0 0.0
0.2579999999993621 0.0 0.0
0.2589999999993647 0.0 0.0
0.2599999999993673 0.0 0.0
0.26099999999937 0.0 0.0
0.2619999999993726 0.0 0.0
0.2629999999993753 0.0 0.0
0.2639999999993779 0.0 0.0
0.2649999999993806 0.0 0.0
0.2659999999993832 0.0 0.0
0.2669999999993858 0.0 0.0
0.2679999999993884 0.0 0.0
0.2689999999993911 0.0 0.0
0.2699999999993937 0.0 0.0
0.2709999999993963 0.0 0.0
0.271999999999399 0.0 0.0
0.2729999999994017 0.0 0.0
0.2739999999994043 0.0 0.0
0.2749999999994069 0.0 0.0
0.2759999999994096 0.0 0.0
0.2769999999994122 0.0 0.0
0.2779999999994148 0.0 0.0
0.2789999999994174 0.0 0.0
0.2799999999994201 0.0 0.0
0.2809999999994228 0.0 0.0
0.2819999999994254 0.0 0.0
0.282999999999428 0.0 0.0
0.2839999999994306 0.0 0.0
0.2849999999994333 0.0 0.0
0.2859999999994359 0.0 0.0
0.2869999999994385 0.0 0.0
0.2879999999994411 0.0 0.0
0.2889999999994439 0.0 0.0
0.2899999999994465 0.0 0.0
0.2909999999994491 0.0 0.0
0.2919999999994517 0.0 0.0
0.2929999999994544 0.0 0.0
0.293999999999457 0.0 0.0
0.2949999999994596 0.0 0.0
0.2959999999994622 0.0 0.0
0.2969999999994649 0.0 0.0
0.2979999999994676 0.0 0.0
0.2989999999994702 0.0 0.0
0.2999999999994728 0.0 0.0
0.3009999999994754 0.0 0.0
0.3019999999994781 0.0 0.0
0.3029999999994807 0.0 0.0
0.3039999999994834 0.0 0.0
0.304999999999486 0.0 0.0
0.3059999999994886 0.0 0.0
0.3069999999994913 0.0 0.0
0.3079999999994939 0.0 0.0
0.3089999999994965 0.0 0.0
0.3099999999994992 0.0 0.0
0.3109999999995018 0.0 0.0
0.3119999999995045 0.0 0.0
0.3129999999995071 0.0 0.0
0.3139999999995097 0.0 0.0
0.3149999999995123 0.0 0.0
0.315999999999515 0.0 0.0
0.3169999999995176 0.0 0.0
0.3179999999995203 0.0 0.0
0.3189999999995229 0.0 0.0
0.3199999999995256 0.0 0.0
0.3209999999995282 0.0 0.0
0.3219999999995308 0.0 0.0
0.3229999999995334 0.0 0.0
0.323999999999536 0.0 0.0
0.3249999999995387 0.0 0.0
0.3259999999995414 0.0 0.0
0.326999999999544 0.0 0.0
0.3279999999995466 0.0 0.0
0.3289999999995493 0.0 0.0
0.3299999999995519 0.0 0.0
0.3309999999995545 0.0 0.0
0.3319999999995571 0.0 0.0
0.3329999999995598 0.0 0.0
0.3339999999995625 0.0 0.0
0.3349999999995651 0.0 0.0
0.3359999999995677 0.0 0.0
0.3369999999995703 0.0 0.0
0.337999999999573 0.0 0.0
0.3389999999995756 0.0 0.0
0.3399999999995783 0.0 0.0
0.3409999999995809 0.0 0.0
0.3419999999995835 0.0 0.0
0.3429999999995862 0.0 0.0
0.3439999999995888 0.0 0.0
0.3449999999995914 0.0 0.0
0.345999999999594 0.0 0.0
0.3469999999995967 0.0 0.0
0.3479999999995994 0.0 0.0
0.348999999999602 0.0 0.0
0.3499999999996046 0.0 0.0
0.3509999999996072 0.0 0.0
0.3519999999996099 0.0 0.0
0.3529999999996125 0.0 0.0
0.3539999999996151 0.0 0.0
0.3549999999996178 0.0 0.0
0.3559999999996205 0.0 0.0
0.3569999999996231 0.0 0.0
0.3579999999996257 0.0 0.0
0.3589999999996283 0.0 0.0
0.359999999999631 0.0 0.0
0.3609999999996336 0.0 0.0
0.3619999999996362 0.0 0.0
[...]
POINT_DATA 7930
SCALARS Disp float 2
LOOKUP_TABLE default
0.0 0.0019918791143572166
0.0 0.1
0.0 0.1
0.0 0.0
5.625892074357692e-06 0.0
-6.856824488993787e-06 0.0019916832564234556
-1.3697210571090315e-05 0.0019913470947126397
-2.0569638193645895e-05 0.0019910296331362132
-2.744023203359522e-05 0.0019901087802209365
-3.412260163135164e-05 0.0019887901441646206
-4.1050084675792726e-05 0.001988043359632065
-4.830660080104688e-05 0.0019869169732402692
-5.514881570872275e-05 0.0019844160103786226
-6.161422047129665e-05 0.0019818161328587786
-6.825610524142987e-05 0.0019804875591565344
-7.567622107071116e-05 0.0019791795544503612
-8.286415736515221e-05 0.0019754536963241067
-8.896293374948564e-05 0.0019712260669872976
-9.540267145512804e-05 0.001969031328532276
-0.00010284677498397098 0.0019673858626769137
-0.00010996288016279604 0.0019631001722374007
-0.00011620676803755836 0.001957789219522195
-0.00012246515493032528 0.0019546123121216433
-0.00013004261177722125 0.001952173836684148
-0.0001373867019299593 0.0019468498496647967
-0.0001435787091789499 0.0019401741129062415
-0.0001497588320669325 0.0019363502076659967
-0.0001573403640150492 0.0019335346080466941
-0.00016499366172466578 0.0019271319769920752
-0.00017107900321025984 0.0019186653810416045
-0.000177082557158592 0.0019137772141527944
-0.0001844931011555874 0.0019103678782296009
-0.0001922853819968941 0.0019032971303114005
-0.00019852220084113823 0.0018938385114469132
-0.00020446733379210881 0.0018875008158591845
-0.0002118137840742407 0.0018832889679110505
-0.0002196534908131972 0.0018753261300089258
-0.00022594990565125638 0.0018644950683379608
-0.00023202995996034548 0.0018567558080005435
-0.00023921438084861894 0.0018517234739918375
-0.00024725368015603264 0.0018428765767666726
-0.0002535637897051644 0.001830548125690842
-0.000259146758104578 0.0018213966569748327
-0.00026630102002004366 0.0018155622160525972
-0.0002742272299273167 0.0018058536555428145
-0.0002804852472955853 0.0017923295979301666
-0.000286317483741169 0.001782092475403498
-0.00029329155553468856 0.001775195842371045
-0.00030157024126777255 0.0017645813412008509
-0.00030809289101324934 0.0017494761795388588
-0.00031351872264582755 0.0017373998256054058
-0.00032064688203619046 0.0017293894863591327
-0.00032839466030639547 0.0017179972512421653
-0.0003351191532214622 0.001701916529134736
-0.00034077715795955983 0.0016881761864912465
-0.0003476944300069966 0.0016787329211322903
-0.00035573174730277085 0.001666210399133282
-0.00036274728973980204 0.0016478944886227365
-0.0003681554834600594 0.001632497928129671
-0.00037491213347894706 0.001621861208561944
-0.0003831732691143829 0.001607912650538116
-0.0003901020480050327 0.0015879817957224795
-0.0003953023953536824 0.001570150805099894
-0.0004017136928096015 0.0015576710137726983
-0.00040982946172723214 0.0015428303243788981
-0.00041710808327785783 0.0015216630909758023
-0.0004229078349196689 0.0015016256387821755
-0.0004294781887640488 0.0014870379959102344
-0.00043760831431616053 0.001470270617797264
-0.00044507463779883144 0.0014466986297932516
-0.00045056860504318405 0.0014239285671034494
-0.0004568394748018951 0.0014069490116136226
-0.0004649427906318927 0.0013881379436799749
-0.0004726264446640692 0.0013620518587558286
-0.00047814698952286576 0.0013362922525168217
-0.00048420818334077797 0.0013164616895784953
-0.0004919462424302734 0.0012952999229810837
-0.0004996334281886036 0.0012664058294216901
-0.0005051753955278815 0.00123699844537213
-0.0005109735405966665 0.0012137530694525266
-0.0005189978423213183 0.001189448808965007
-0.0005268508373921738 0.0011568670873256953
-0.0005322596685233167 0.0011232759586550479
-0.0005379136186433655 0.001095687675567547
-0.0005458496125204015 0.001067053112317378
-0.0005540440267605818 0.0010296654063125046
-0.0005594259962635933 0.000990058595586191
-0.0005650180999781375 0.0009557605538963365
-0.000573236023240906 0.0009207278275040355
-0.0005807053635058875 0.0008758827780208924
-0.000586561599497405 0.000827137451505172
-0.0005919087947441954 0.0007833002280379698
-0.0005999085825842972 0.000737140768245504
-0.0006088152022570212 0.0006784547461545156
-0.0006142945055558607 0.000612232038872941
-0.0006193016903760476 0.0005463573611734439
-0.0006273054221970866 0.0004703679211921096
-0.0006308797580718722 0.0003712572061022798
-0.0006269327412973794 0.00023546970599802594
-0.0005874137915068102 0.0
-0.0005503086868970491 0.0
-0.0005145465843110381 0.0
-0.0004903424922889448 0.0
-0.0004700971735394939 0.0
-0.0004528797940147349 0.0
-0.00043818854577380993 0.0
-0.0004250726478556409 0.0
-0.0004132471801964444 0.0
-0.00040248665794820955 0.0
-0.0003925179309568316 0.0
-0.0003830936486102164 0.0
-0.0003743592324388222 0.0
-0.00036631710369705936 0.0
-0.00035840625443300713 0.0
-0.0003510430939126048 0.0
-0.0003440846740218364 0.0
-0.0003374043288107084 0.0
-0.0003310414114698236 0.0
-0.0003249591098228257 0.0
-0.00031909162272534 0.0
-0.0003134671216010408 0.0
-0.0003080763229359719 0.0
-0.0003028899545594898 0.0
-0.00029794443042418937 0.0
-0.0002930473283149228 0.0
-0.0002883948937596318 0.0
-0.0002838735231152326 0.0
-0.0002795249968208446 0.0
-0.00027527255896966506 0.0
-0.00027117627653641457 0.0
-0.0002671989851379571 0.0
-0.0002633361089060817 0.0
-0.0002595813211732782 0.0
-0.0002559358764769964 0.0
-0.00025238997121751163 0.0
-0.00024893501201702424 0.0
-0.00024556485307975526 0.0
-0.00024229194496424065 0.0
-0.00023911459422689267 0.0
-0.0002359715949457423 0.0
-0.00023292584550706829 0.0
-0.00022993864694827458 0.0
-0.0002270210469524075 0.0
-0.0002241637393793124 0.0
-0.00022136795160855873 0.0
-0.00021863554072784405 0.0
-0.0002159633928502109 0.0
-0.00021334804655120517 0.0
-0.00021078113672520326 0.0
-0.00020827033114222983 0.0
-0.00020581269724273776 0.0
-0.0002034022377514349 0.0
-0.00020104230142075513 0.0
-0.00019872772633943223 0.0
-0.00019645348377444934 0.0
-0.00019422112206239438 0.0
-0.0001920290690515632 0.0
-0.0001898720088017239 0.0
-0.00018774968481675094 0.0
-0.0001856653385352575 0.0
-0.0001836209395243269 0.0
-0.00018159173163752313 0.0
-0.000179611234830651 0.0
-0.00017765607745247767 0.0
-0.0001757311537217688 0.0
-0.00017384245210572754 0.0
-0.00017196523857882157 0.0
-0.00017013185055507075 0.0
-0.00016832547613291623 0.0
-0.00016654612087941452 0.0
-0.00016479629978484277 0.0
-0.00016307382718205122 0.0
-0.00016137755271260185 0.0
-0.00015970631424906548 0.0
-0.00015806103245074527 0.0
-0.00015643967607032312 0.0
-0.00015483950067366058 0.0
-0.00015326478318695232 0.0
-0.00015171455214743292 0.0
-0.00015018432984821855 0.0
-0.00014867381378090024 0.0
-0.00014718470477164417 0.0
-0.00014571702009489449 0.0
-0.0001442651738365083 0.0
-0.00014283182447780398 0.0
-0.00014141809938272162 0.0
-0.00014002076230643727 0.0
-0.00013863989421617623 0.0
-0.0001372763845995185 0.0
-0.00013593150699321374 0.0
-0.0001346013166146462 0.0
-0.00013328783277684328 0.0
-0.0001319905387748732 0.0
-0.00013070871965514667 0.0
-0.00012944336434375818 0.0
-0.00012819458824747345 0.0
-0.00012695960242909487 0.0
-0.00012573955976181506 0.0
-0.00012453326865509594 0.0
-0.00012334106342332793 0.0
-0.0001221641506647282 0.0
-0.00012099973836083491 0.0
-0.0001198470399810817 0.0
-0.00011870844887272159 0.0
-0.00011758061374882717 0.0
-0.00011646493052935214 0.0
-0.00011536209706253337 0.0
-0.00011427076509850961 0.0
-0.00011319007972844516 0.0
-0.00011212303312178121 0.0
-0.0001110632486389108 0.0
-0.00011001483961362828 0.0
-0.00010897769146371941 0.0
-0.00010795277456103066 0.0
-0.00010693820481225046 0.0
-0.00010593459211651893 0.0
-0.00010494225214159253 0.0
-0.00010395993845750966 0.0
-0.00010298822374156688 0.0
-0.0001020304574830695 0.0
-0.00010107770571719015 0.0
-0.00010013776331854245 0.0
-9.920871097799928e-05 0.0
-9.828840789617053e-05 0.0
-9.737811194460161e-05 0.0
-9.647771366288072e-05 0.0
-9.558655692675188e-05 0.0
-9.470423917980786e-05 0.0
-9.383115085378972e-05 0.0
-9.296695681900615e-05 0.0
-9.211098320159758e-05 0.0
-9.126403462662646e-05 0.0
-9.042506787224392e-05 0.0
-8.959403773034547e-05 0.0
-8.877138938875847e-05 0.0
-8.795584785151243e-05 0.0
-8.714721998845047e-05 0.0
-8.634647919799685e-05 0.0
-8.555314259143108e-05 0.0
-8.476599886239761e-05 0.0
-8.398668454281205e-05 0.0
-8.321377966199385e-05 0.0
-8.244795946698108e-05 0.0
-8.168874019575722e-05 0.0
-8.093575509269604e-05 0.0
-8.018881296686598e-05 0.0
-7.94479192411298e-05 0.0
-7.871338698659936e-05 0.0
-7.798427980422625e-05 0.0
-7.726117932978327e-05 0.0
-7.654484982123211e-05 0.0
-7.583336100886647e-05 0.0
-7.51275187931995e-05 0.0
-7.442809461556502e-05 0.0
-7.37341724998632e-05 0.0
-7.304602931572094e-05 0.0
-7.236355751925739e-05 0.0
-7.168630071070188e-05 0.0
-7.101479539474002e-05 0.0
-7.034935243729697e-05 0.0
-6.968910455658904e-05 0.0
-6.903448641516715e-05 0.0
-6.838537256797539e-05 0.0
-6.774193408236384e-05 0.0
-6.710408438564557e-05 0.0
-6.647165555441079e-05 0.0
-6.584436024558224e-05 0.0
-6.522203594506422e-05 0.0
-6.460498160671798e-05 0.0
-6.399269167883417e-05 0.0
-6.338545974012107e-05 0.0
-6.278310909319018e-05 0.0
-6.218538184758554e-05 0.0
-6.159052627301663e-05 0.0
-6.1002355453245264e-05 0.0
-6.041644002534613e-05 0.0
-5.9836330145848174e-05 0.0
-5.92584723000371e-05 0.0
-5.8684860791510834e-05 0.0
-5.811519055735489e-05 0.0
-5.75494488997142e-05 0.0
-5.698757721500427e-05 0.0
-5.6429376234602546e-05 0.0
-5.587509576064329e-05 0.0
-5.532484912074743e-05 0.0
-5.47783613488273e-05 0.0
-5.423563018549642e-05 0.0
-5.369707607491359e-05 0.0
-5.31626911104323e-05 0.0
-5.2632258632356586e-05 0.0
-5.210611275425391e-05 0.0
-5.158447463940231e-05 0.0
-5.106733651152864e-05 0.0
-5.0554862019221247e-05 0.0
-5.00450283577461e-05 0.0
-4.954090778532865e-05 0.0
-4.904115510359335e-05 0.0
-4.8545884099712226e-05 0.0
-4.805592413876943e-05 0.0
-4.756873853375304e-05 0.0
-4.7086097798208174e-05 0.0
-4.660780976193786e-05 0.0
-4.613371045404988e-05 0.0
-4.56632972611743e-05 0.0
-4.519660789756792e-05 0.0
-4.4733376193145056e-05 0.0
-4.427375288920756e-05 0.0
-4.381733892277769e-05 0.0
-4.33640103337658e-05 0.0
-4.291375364227127e-05 0.0
-4.24665057468035e-05 0.0
-4.2022119333496235e-05 0.0
-4.157890241096347e-05 0.0
-4.113901626303691e-05 0.0
-4.070167680774227e-05 0.0
-4.026681717242563e-05 0.0
-3.983512491961227e-05 0.0
-3.9404101717315334e-05 0.0
-3.897555410704123e-05 0.0
-3.854951929412194e-05 0.0
-3.812590021269295e-05 0.0
-3.770452950662838e-05 0.0
-3.7286018815236216e-05 0.0
-3.6869931856291596e-05 0.0
-3.6456501451345214e-05 0.0
-3.604561178297507e-05 0.0
-3.56374871267623e-05 0.0
-3.5232186198394266e-05 0.0
-3.4829563811028614e-05 0.0
-3.4429997335662026e-05 0.0
-3.4033717094751686e-05 0.0
-3.3640209323909426e-05 0.0
-3.3249681601196484e-05 0.0
-3.286247209410903e-05 0.0
-3.247838421179377e-05 0.0
-3.2097205268646584e-05 0.0
-3.171919456294694e-05 0.0
-3.134404330267498e-05 0.0
-3.097198672058961e-05 0.0
-3.060277220965191e-05 0.0
-3.0236283171946462e-05 0.0
-2.98723985676334e-05 0.0
-2.951110217715191e-05 0.0
-2.915248003228007e-05 0.0
-2.8796301961171196e-05 0.0
-2.8442356261630422e-05 0.0
-2.80905275719915e-05 0.0
-2.7740896202068044e-05 0.0
-2.7393307496188055e-05 0.0
-2.7047512746151605e-05 0.0
-2.6703741225331488e-05 0.0
-2.636183314083324e-05 0.0
-2.6021735837713797e-05 0.0
-2.568332136957556e-05 0.0
-2.5346620464729113e-05 0.0
-2.5011641831953652e-05 0.0
-2.4678271277963868e-05 0.0
-2.4346736821970784e-05 0.0
-2.401689076619341e-05 0.0
-2.3688766101861017e-05 0.0
-2.3362441255489024e-05 0.0
-2.3038022749885995e-05 0.0
-2.271559908448903e-05 0.0
-2.2395118843569895e-05 0.0
-2.2076632304558623e-05 0.0
-2.176032205455659e-05 0.0
-2.1446212701742884e-05 0.0
-2.113437356902385e-05 0.0
-2.0824875758034744e-05 0.0
-2.051773191603137e-05 0.0
-2.0212972958874403e-05 0.0
-1.991073365782795e-05 0.0
-1.9611034144487363e-05 0.0
-1.9313927258908948e-05 0.0
-1.9018640863137514e-05 0.0
-1.8726234654138544e-05 0.0
-1.843639075491404e-05 0.0
-1.8149010315462265e-05 0.0
-1.7864059183932583e-05 0.0
-1.7581512922281674e-05 0.0
-1.730128099601369e-05 0.0
-1.702328113082997e-05 0.0
-1.6747527926204564e-05 0.0
-1.6473746085706616e-05 0.0
-1.6202067145559774e-05 0.0
-1.5932436134307654e-05 0.0
-1.566463216727328e-05 0.0
-1.5398611623473606e-05 0.0
-1.51344308431235e-05 0.0
-1.4871739848035401e-05 0.0
-1.461064391364725e-05 0.0
-1.435102717550648e-05 0.0
-1.4092865134380433e-05 0.0
-1.3836045536839457e-05 0.0
-1.3580545992476056e-05 0.0
-1.3326359389500555e-05 0.0
-1.3073380854645472e-05 0.0
-1.2821639169761335e-05 0.0
-1.2571140527135232e-05 0.0
-1.2321887949801906e-05 0.0
-1.2073806250051791e-05 0.0
-1.1826959656430263e-05 0.0
-1.1581363103562344e-05 0.0
-1.133696152084373e-05 0.0
-1.10940214373721e-05 0.0
-1.085239706052626e-05 0.0
-1.0612140919097544e-05 0.0
-1.0373394078081835e-05 0.0
-1.0136219866415699e-05 0.0
-9.900550738407997e-06 0.0
-9.666471634001591e-06 0.0
-9.434088168947524e-06 0.0
-9.203482721536658e-06 0.0
-8.974565663720824e-06 0.0
-8.747465751790397e-06 0.0
-8.522135840731175e-06 0.0
-8.298610330575817e-06 0.0
-8.077105835614197e-06 0.0
-7.857611525609444e-06 0.0
-7.640024757111383e-06 0.0
-7.424461177796312e-06 0.0
-7.210872664285603e-06 0.0
-6.999184537058404e-06 0.0
-6.78947499099327e-06 0.0
-6.5816150067597735e-06 0.0
-6.3757009192801174e-06 0.0
-6.171722494478103e-06 0.0
-5.969557460134165e-06 0.0
-5.769089131446436e-06 0.0
-5.570483479756478e-06 0.0
-5.373623804734458e-06 0.0
-5.178395217040658e-06 0.0
-4.984737830549746e-06 0.0
-4.792570584389305e-06 0.0
-4.601924507578202e-06 0.0
-4.412726034695503e-06 0.0
-4.2248371173413285e-06 0.0
-4.038283208633935e-06 0.0
-3.8531355278943535e-06 0.0
-3.668991527270558e-06 0.0
-3.4860940972370274e-06 0.0
-3.3043566499745506e-06 0.0
-3.1237733358937036e-06 0.0
-2.9442195475170954e-06 0.0
-2.765637635788386e-06 0.0
-2.588140530293138e-06 0.0
-2.4116705469791292e-06 0.0
-2.236246590810799e-06 0.0
-2.061913388937214e-06 0.0
-1.8883695304406613e-06 0.0
-1.7158913117541684e-06 0.0
-1.5444431134241613e-06 0.0
-1.3740369073522946e-06 0.0
-1.204633087251319e-06 0.0
-1.036350845891292e-06 0.0
-8.691477296347923e-07 0.0
-7.030341670491185e-07 0.0
-5.380744454947309e-07 0.0
-3.742680354968869e-07 0.0
-2.1171340788268645e-07 0.0
-5.043458335317651e-08 0.0
1.0952375699217132e-07 0.0
2.6830317519768935e-07 0.0
4.256238597540323e-07 0.0
5.81553902010303e-07 0.0
7.360087438222341e-07 0.0
8.89063644619311e-07 0.0
1.0406690152245721e-06 0.0
1.1908716953931192e-06 0.0
1.339540042813087e-06 0.0
1.4865890224061666e-06 0.0
1.632110153526764e-06 0.0
1.7762142481429568e-06 0.0
1.9187654542689084e-06 0.0
2.059844208140969e-06 0.0
2.1993765095584923e-06 0.0
2.337403525471335e-06 0.0
2.473873519229056e-06 0.0
2.6088257146795925e-06 0.0
2.7423359062660374e-06 0.0
2.8742791429600315e-06 0.0
3.004743383897203e-06 0.0
3.1337296870404704e-06 0.0
3.2613141020369274e-06 0.0
3.387515079943013e-06 0.0
3.5123177986564008e-06 0.0
3.6356904932148583e-06 0.0
3.7576329080830183e-06 0.0
3.878368748908579e-06 0.0
3.997680064668527e-06 0.0
4.115624450837151e-06 0.0
4.232256844450052e-06 0.0
4.347424968024983e-06 0.0
4.461447951276626e-06 0.0
4.574167212393577e-06 0.0
4.6855262006264e-06 0.0
4.795529511301405e-06 0.0
4.904309434835962e-06 0.0
5.011673245893038e-06 0.0
5.117634310138227e-06 0.0
5.22211795583744e-06 0.0
5.325233471032237e-06 0.0
5.427058452561252e-06 0.0
5.5272263856308935e-06 0.0
5.726560283949189e-06 0.0
5.834055984969179e-06 0.0
5.948705230441355e-06 0.0
6.070631627948987e-06 0.0
6.199829844121871e-06 0.0
6.336329568419895e-06 0.0
6.4798843326204465e-06 0.0
6.6299924355160114e-06 0.0
6.786102993780652e-06 0.0
6.947292541615094e-06 0.0
7.112251845655149e-06 0.0
7.280056446524477e-06 0.0
7.448158247537004e-06 0.0
7.615841124765598e-06 0.0
7.780819448898474e-06 0.0
7.940729366483256e-06 0.0
8.092991232751878e-06 0.0
8.238328995959248e-06 0.0
8.374370687892697e-06 0.0
8.503041974366508e-06 0.0
8.621323025873688e-06 0.0
8.724343056928562e-06 0.0
8.800648147427694e-06 0.0
8.848403054558388e-06 0.0
8.844606542566603e-06 0.0
8.783380371371455e-06 0.0
8.653492337763874e-06 0.0
8.461435694211721e-06 0.0
8.220699393802083e-06 0.0
7.931309127546155e-06 0.0
7.575391700841915e-06 0.0
7.1200318992788545e-06 0.0
6.543662037880659e-06 0.0
5.86696422062988e-06 0.0
5.147905729969672e-06 0.0
4.418659154559274e-06 0.0
3.630144256667271e-06 0.0
2.711869893978544e-06 0.0
1.7230259931877798e-06 0.0
8.810619947608272e-07 0.0
3.349751949817093e-07 0.0
8.495814429237173e-08 0.0
1.4905433638952695e-08 0.0
9.342877191768118e-10 0.0
9.685399838594095e-12 0.0
-2.5791908089885477e-12 0.0
4.229672213932274e-13 0.0
4.09499763949424e-13 0.0
1.688591720775176e-13 0.0
-1.5831636788464704e-14 0.0
1.8606490967305255e-15 0.0
6.340826394857999e-15 0.0
7.808447071721095e-16 0.0
3.2485409198872047e-15 0.0
-2.7449088766075673e-15 0.0
-2.606642352176428e-15 0.0
-9.991230457799783e-16 0.0
1.4073072014441205e-16 0.0
3.1249984783226834e-16 0.0
4.0400193670754253e-16 0.0
-4.429120033689718e-17 0.0
2.1995593982458104e-16 0.0
7.833736295010672e-16 0.0
-2.0333628611142323e-17 0.0
-2.2764698687924127e-16 0.0
-6.249666439383146e-16 0.0
-3.9610922057614755e-16 0.0
3.7475987323908464e-16 0.0
-1.310398166432332e-16 0.0
-3.887132584401885e-16 0.0
7.390291126755786e-16 0.0
7.983870070349278e-16 0.0
-1.978861308327715e-15 0.0
7.154362649602645e-16 0.0
2.160611271807014e-15 0.0
-2.3349944060424325e-15 0.0
2.5781185362936197e-16 0.0
1.2007168563957528e-15 0.0
-1.7616344216521015e-15 0.0
0.0 0.009234165287259765
0.0 0.02210978593046338
0.0 0.04006285207145161
0.0 0.0650956392630959
-2.533814578072369e-15 0.1
-3.4268430813347504e-15 0.1
3.914957984088001e-14 0.1
-4.0479917185008794e-14 0.1
0.0 0.09234095951658487
0.0 0.08526779443703528
0.0 0.07873568783499223
0.0 0.07270325358165577
0.0 0.06713226878991181
0.0 0.06198743331091628
0.0 0.05723615233795582
0.0 0.052848316929524346
0.0 0.04879612844994299
0.0 0.04505391065785082
0.0 0.0415979528271267
0.0 0.03840635724257441
0.0 0.03545890171822729
0.0 0.03273691087333638
0.0 0.03022313773603541
0.0 0.027901654838208292
0.0 0.025757753001964374
0.0 0.023777848352106962
0.0 0.021949395807913684
0.0 0.02026081025537581
0.0 0.018701392224988938
0.0 0.017261261590360285
0.0 0.01593129332813254
0.0 0.014703060537924754
0.0 0.013568780384468297
0.0 0.01252126808359352
0.0 0.011553886083353247
0.0 0.01066045718582129
0.0 0.009835587848504046
0.0 0.009072891111531697
0.0 0.008371971917186884
0.0 0.007729547273791642
0.0 0.0071405668402348185
0.0 0.006600051958388968
0.0 0.0061049326767668175
0.0 0.005652749977226816
0.0 0.005240551084576478
0.0 0.00486529533248817
0.0 0.004525341856415081
0.0 0.004216201851838131
0.0 0.003936500514315294
0.0 0.0036837508730986302
0.0 0.003455535036330304
0.0 0.003251206259348182
0.0 0.0030692260254470863
0.0 0.0029071639166593027
0.0 0.002763996923563666
0.0 0.002638617272510218
0.0 0.002528836854578258
0.0 0.0024344269793974667
0.0 0.0023548266885752025
0.0 0.0022868442620112097
0.0 0.002230364773738004
0.0 0.002184565331118156
0.0 0.002146941712782656
0.0 0.0021173054369268735
0.0 0.0020941831172559652
0.0 0.002076996791643249
0.0 0.002064215628811504
0.0 0.0020550307788257086
0.0 0.0020483033653042972
0.0 0.0020435439064761924
0.0 0.0020407095601083893
0.0 0.002038127358863504
0.0 0.002036698807829121
0.0 0.0020345584221715405
0.0 0.002032953316988457
0.0 0.0020313409975838115
0.0 0.0020295504477026746
0.0 0.002027623861905379
0.0 0.0020254032252374596
0.0 0.0020230842666927673
0.0 0.002020580632241829
0.0 0.002017985948652803
0.0 0.002015247089986243
0.0 0.0020125188111359627
0.0 0.002009761269946356
0.0 0.002007005552237912
0.0 0.0020042859246482848
0.0 0.002001599695841612
0.0 0.001999049627489972
0.0 0.001996552800754529
0.0 0.0019941471969075375
1.0765253141707612e-05 0.004935832720761986
7.960617313580045e-05 0.0028352962969311517
0.0001290734497970573 0.0017940454664012275
0.00016919006823727878 0.0015340381353246158