# vtk DataFile Version 3.0
Some data
ASCII
DATASET UNSTRUCTURED_GRID
POINTS 7930 float
0.0 0.0 0.0
0.0 10.0 0.0
10.0 10.0 0.0
10.0 0.0 0.0
0.5 0.0 0.0
0.0009999999999981016 0.0 0.0
0.001999999999996203 0.0 0.0
0.002999999999994305 0.0 0.0
0.003999999999992409 0.0 0.0
0.004999999999990531 0.0 0.0
0.005999999999988653 0.0 0.0
0.006999999999986775 0.0 0.0
0.007999999999984898 0.0 0.0
0.008999999999983018 0.0 0.0
0.009999999999981142 0.0 0.0
0.01099999999997926 0.0 0.0
0.01199999999997736 0.0 0.0
0.0129999999999754 0.0 0.0
0.01399999999997343 0.0 0.0
0.01499999999997147 0.0 0.0
0.01599999999996944 0.0 0.0
0.0169999999999673 0.0 0.0
0.01799999999996516 0.0 0.0
0.01899999999996302 0.0 0.0
0.01999999999996084 0.0 0.0
0.02099999999995862 0.0 0.0
0.02199999999995639 0.0 0.0
0.02299999999995417 0.0 0.0
0.02399999999995195 0.0 0.0
0.02499999999994972 0.0 0.0
0.0259999999999475 0.0 0.0
0.02699999999994527 0.0 0.0
0.02799999999994315 0.0 0.0
0.0289999999999411 0.0 0.0
0.02999999999993905 0.0 0.0
0.030999999999937 0.0 0.0
0.03199999999993521 0.0 0.0
0.0329999999999335 0.0 0.0
0.0339999999999318 0.0 0.0
0.03499999999993009 0.0 0.0
0.03599999999992853 0.0 0.0
0.036999999999927 0.0 0.0
0.03799999999992547 0.0 0.0
0.03899999999992394 0.0 0.0
0.03999999999992241 0.0 0.0
0.04099999999992088 0.0 0.0
0.04199999999991934 0.0 0.0
0.04299999999991782 0.0 0.0
0.04399999999991629 0.0 0.0
0.04499999999991475 0.0 0.0
0.04599999999991322 0.0 0.0
0.0469999999999117 0.0 0.0
0.04799999999991016 0.0 0.0
0.04899999999990863 0.0 0.0
0.0499999999999071 0.0 0.0
0.05099999999990557 0.0 0.0
0.05199999999990404 0.0 0.0
0.05299999999990251 0.0 0.0
0.05399999999990097 0.0 0.0
0.05499999999989943 0.0 0.0
0.05599999999989791 0.0 0.0
0.05699999999989638 0.0 0.0
0.05799999999989484 0.0 0.0
0.05899999999989317 0.0 0.0
0.05999999999989129 0.0 0.0
0.06099999999988941 0.0 0.0
0.06199999999988753 0.0 0.0
0.06299999999988531 0.0 0.0
0.06399999999988273 0.0 0.0
0.06499999999988015 0.0 0.0
0.06599999999987759 0.0 0.0
0.0669999999998748 0.0 0.0
0.06799999999987189 0.0 0.0
0.06899999999986897 0.0 0.0
0.06999999999986604 0.0 0.0
0.07099999999986313 0.0 0.0
0.0719999999998602 0.0 0.0
0.07299999999985729 0.0 0.0
0.07399999999985438 0.0 0.0
0.07499999999985145 0.0 0.0
0.07599999999984854 0.0 0.0
0.07699999999984562 0.0 0.0
0.0779999999998427 0.0 0.0
0.07899999999983978 0.0 0.0
0.07999999999983685 0.0 0.0
0.08099999999983394 0.0 0.0
0.08199999999983103 0.0 0.0
0.0829999999998281 0.0 0.0
0.08399999999982519 0.0 0.0
0.08499999999982226 0.0 0.0
0.08599999999981935 0.0 0.0
0.08699999999981643 0.0 0.0
0.0879999999998135 0.0 0.0
0.08899999999981059 0.0 0.0
0.08999999999980766 0.0 0.0
0.09099999999980475 0.0 0.0
0.09199999999980184 0.0 0.0
0.09299999999979891 0.0 0.0
0.093999999999796 0.0 0.0
0.09499999999979307 0.0 0.0
0.09599999999979016 0.0 0.0
0.09699999999978724 0.0 0.0
0.09799999999978432 0.0 0.0
0.0989999999997814 0.0 0.0
0.09999999999977847 0.0 0.0
0.1009999999997756 0.0 0.0
0.1019999999997726 0.0 0.0
0.1029999999997697 0.0 0.0
0.1039999999997668 0.0 0.0
0.1049999999997639 0.0 0.0
0.105999999999761 0.0 0.0
0.106999999999758 0.0 0.0
0.1079999999997551 0.0 0.0
0.1089999999997522 0.0 0.0
0.1099999999997493 0.0 0.0
0.1109999999997464 0.0 0.0
0.1119999999997434 0.0 0.0
0.1129999999997405 0.0 0.0
0.1139999999997376 0.0 0.0
0.1149999999997347 0.0 0.0
0.1159999999997318 0.0 0.0
0.1169999999997288 0.0 0.0
0.1179999999997259 0.0 0.0
0.118999999999723 0.0 0.0
0.1199999999997201 0.0 0.0
0.1209999999997172 0.0 0.0
0.1219999999997143 0.0 0.0
0.1229999999997113 0.0 0.0
0.1239999999997084 0.0 0.0
0.1249999999997055 0.0 0.0
0.1259999999997026 0.0 0.0
0.1269999999996997 0.0 0.0
0.1279999999996967 0.0 0.0
0.1289999999996938 0.0 0.0
0.1299999999996909 0.0 0.0
0.130999999999688 0.0 0.0
0.1319999999996851 0.0 0.0
0.1329999999996822 0.0 0.0
0.1339999999996792 0.0 0.0
0.1349999999996764 0.0 0.0
0.1359999999996734 0.0 0.0
0.1369999999996705 0.0 0.0
0.1379999999996676 0.0 0.0
0.1389999999996647 0.0 0.0
0.1399999999996618 0.0 0.0
0.1409999999996588 0.0 0.0
0.1419999999996559 0.0 0.0
0.142999999999653 0.0 0.0
0.1439999999996501 0.0 0.0
0.1449999999996472 0.0 0.0
0.1459999999996442 0.0 0.0
0.1469999999996414 0.0 0.0
0.1479999999996384 0.0 0.0
0.1489999999996355 0.0 0.0
0.1499999999996326 0.0 0.0
0.1509999999996297 0.0 0.0
0.1519999999996268 0.0 0.0
0.1529999999996239 0.0 0.0
0.1539999999996209 0.0 0.0
0.154999999999618 0.0 0.0
0.1559999999996151 0.0 0.0
0.1569999999996122 0.0 0.0
0.1579999999996093 0.0 0.0
0.1589999999996064 0.0 0.0
0.1599999999996035 0.0 0.0
0.1609999999996005 0.0 0.0
0.1619999999995976 0.0 0.0
0.1629999999995947 0.0 0.0
0.1639999999995918 0.0 0.0
0.1649999999995889 0.0 0.0
0.165999999999586 0.0 0.0
0.1669999999995831 0.0 0.0
0.1679999999995801 0.0 0.0
0.1689999999995772 0.0 0.0
0.1699999999995743 0.0 0.0
0.1709999999995714 0.0 0.0
0.1719999999995685 0.0 0.0
0.1729999999995655 0.0 0.0
0.1739999999995626 0.0 0.0
0.1749999999995597 0.0 0.0
0.1759999999995568 0.0 0.0
0.1769999999995539 0.0 0.0
0.177999999999551 0.0 0.0
0.178999999999548 0.0 0.0
0.1799999999995451 0.0 0.0
0.1809999999995422 0.0 0.0
0.1819999999995393 0.0 0.0
0.1829999999995364 0.0 0.0
0.1839999999995335 0.0 0.0
0.1849999999995305 0.0 0.0
0.1859999999995277 0.0 0.0
0.1869999999995247 0.0 0.0
0.1879999999995218 0.0 0.0
0.1889999999995189 0.0 0.0
0.189999999999516 0.0 0.0
0.1909999999995131 0.0 0.0
0.1919999999995101 0.0 0.0
0.1929999999995072 0.0 0.0
0.1939999999995043 0.0 0.0
0.1949999999995014 0.0 0.0
0.1959999999994985 0.0 0.0
0.1969999999994956 0.0 0.0
0.1979999999994927 0.0 0.0
0.1989999999994897 0.0 0.0
0.1999999999994868 0.0 0.0
0.2009999999994839 0.0 0.0
0.201999999999481 0.0 0.0
0.2029999999994781 0.0 0.0
0.2039999999994752 0.0 0.0
0.2049999999994722 0.0 0.0
0.2059999999994693 0.0 0.0
0.2069999999994664 0.0 0.0
0.2079999999994635 0.0 0.0
0.2089999999994606 0.0 0.0
0.2099999999994577 0.0 0.0
0.2109999999994548 0.0 0.0
0.2119999999994518 0.0 0.0
0.2129999999994489 0.0 0.0
0.213999999999446 0.0 0.0
0.2149999999994431 0.0 0.0
0.2159999999994402 0.0 0.0
0.2169999999994373 0.0 0.0
0.2179999999994343 0.0 0.0
0.2189999999994314 0.0 0.0
0.2199999999994285 0.0 0.0
0.2209999999994256 0.0 0.0
0.2219999999994227 0.0 0.0
0.2229999999994198 0.0 0.0
0.2239999999994168 0.0 0.0
0.2249999999994139 0.0 0.0
0.225999999999411 0.0 0.0
0.2269999999994081 0.0 0.0
0.2279999999994052 0.0 0.0
0.2289999999994023 0.0 0.0
0.2299999999993994 0.0 0.0
0.2309999999993964 0.0 0.0
0.2319999999993935 0.0 0.0
0.2329999999993906 0.0 0.0
0.2339999999993877 0.0 0.0
0.2349999999993848 0.0 0.0
0.2359999999993818 0.0 0.0
0.236999999999379 0.0 0.0
0.237999999999376 0.0 0.0
0.2389999999993731 0.0 0.0
0.2399999999993702 0.0 0.0
0.2409999999993673 0.0 0.0
0.2419999999993644 0.0 0.0
0.2429999999993615 0.0 0.0
0.2439999999993585 0.0 0.0
0.2449999999993556 0.0 0.0
0.2459999999993527 0.0 0.0
0.246999999999351 0.0 0.0
0.2479999999993495 0.0 0.0
0.248999999999348 0.0 0.0
0.2499999999993464 0.0 0.0
0.2509999999993477 0.0 0.0
0.2519999999993489 0.0 0.0
0.2529999999993502 0.0 0.0
0.2539999999993516 0.0 0.0
0.2549999999993542 0.0 0.0
0.2559999999993569 0.0 0.0
0.2569999999993595 0.0 0.0
0.2579999999993621 0.0 0.0
0.2589999999993647 0.0 0.0
0.2599999999993673 0.0 0.0
0.26099999999937 0.0 0.0
0.2619999999993726 0.0 0.0
0.2629999999993753 0.0 0.0
0.2639999999993779 0.0 0.0
0.2649999999993806 0.0 0.0
0.2659999999993832 0.0 0.0
0.2669999999993858 0.0 0.0
0.2679999999993884 0.0 0.0
0.2689999999993911 0.0 0.0
0.2699999999993937 0.0 0.0
0.2709999999993963 0.0 0.0
0.271999999999399 0.0 0.0
0.2729999999994017 0.0 0.0
0.2739999999994043 0.0 0.0
0.2749999999994069 0.0 0.0
0.2759999999994096 0.0 0.0
0.2769999999994122 0.0 0.0
0.2779999999994148 0.0 0.0
0.2789999999994174 0.0 0.0
0.2799999999994201 0.0 0.0
0.2809999999994228 0.0 0.0
0.2819999999994254 0.0 0.0
0.282999999999428 0.0 0.0
0.2839999999994306 0.0 0.0
0.2849999999994333 0.0 0.0
0.2859999999994359 0.0 0.0
0.2869999999994385 0.0 0.0
0.2879999999994411 0.0 0.0
0.2889999999994439 0.0 0.0
0.2899999999994465 0.0 0.0
0.2909999999994491 0.0 0.0
0.2919999999994517 0.0 0.0
0.2929999999994544 0.0 0.0
0.293999999999457 0.0 0.0
0.2949999999994596 0.0 0.0
0.2959999999994622 0.0 0.0
0.2969999999994649 0.0 0.0
0.2979999999994676 0.0 0.0
0.2989999999994702 0.0 0.0
0.2999999999994728 0.0 0.0
0.3009999999994754 0.0 0.0
0.3019999999994781 0.0 0.0
0.3029999999994807 0.0 0.0
0.3039999999994834 0.0 0.0
0.304999999999486 0.0 0.0
0.3059999999994886 0.0 0.0
0.3069999999994913 0.0 0.0
0.3079999999994939 0.0 0.0
0.3089999999994965 0.0 0.0
0.3099999999994992 0.0 0.0
0.3109999999995018 0.0 0.0
0.3119999999995045 0.0 0.0
0.3129999999995071 0.0 0.0
0.3139999999995097 0.0 0.0
0.3149999999995123 0.0 0.0
0.315999999999515 0.0 0.0
0.3169999999995176 0.0 0.0
0.3179999999995203 0.0 0.0
0.3189999999995229 0.0 0.0
0.3199999999995256 0.0 0.0
0.3209999999995282 0.0 0.0
0.3219999999995308 0.0 0.0
0.3229999999995334 0.0 0.0
0.323999999999536 0.0 0.0
0.3249999999995387 0.0 0.0
0.3259999999995414 0.0 0.0
0.326999999999544 0.0 0.0
0.3279999999995466 0.0 0.0
0.3289999999995493 0.0 0.0
0.3299999999995519 0.0 0.0
0.3309999999995545 0.0 0.0
0.3319999999995571 0.0 0.0
0.3329999999995598 0.0 0.0
0.3339999999995625 0.0 0.0
0.3349999999995651 0.0 0.0
0.3359999999995677 0.0 0.0
0.3369999999995703 0.0 0.0
0.337999999999573 0.0 0.0
0.3389999999995756 0.0 0.0
0.3399999999995783 0.0 0.0
0.3409999999995809 0.0 0.0
0.3419999999995835 0.0 0.0
0.3429999999995862 0.0 0.0
0.3439999999995888 0.0 0.0
0.3449999999995914 0.0 0.0
0.345999999999594 0.0 0.0
0.3469999999995967 0.0 0.0
0.3479999999995994 0.0 0.0
0.348999999999602 0.0 0.0
0.3499999999996046 0.0 0.0
0.3509999999996072 0.0 0.0
0.3519999999996099 0.0 0.0
0.3529999999996125 0.0 0.0
0.3539999999996151 0.0 0.0
0.3549999999996178 0.0 0.0
0.3559999999996205 0.0 0.0
0.3569999999996231 0.0 0.0
0.3579999999996257 0.0 0.0
0.3589999999996283 0.0 0.0
0.359999999999631 0.0 0.0
0.3609999999996336 0.0 0.0
0.3619999999996362 0.0 0.0
[...]
POINT_DATA 7930
SCALARS Disp float 2
LOOKUP_TABLE default
0.0 0.0012965027826025712
0.0 0.1
0.0 0.1
0.0 0.0
1.7605747709444107e-06 0.0
-6.788801476475476e-06 0.0012962873680141397
-1.3578820513764928e-05 0.001295948058823245
-2.0339601332429444e-05 0.001295083120977376
-2.697961994487753e-05 0.0012935538757066635
-3.361442687152076e-05 0.0012923567439435662
-4.073358769863927e-05 0.0012915789176031615
-4.7923318532386376e-05 0.0012889287792922143
-5.443991442444747e-05 0.0012849721139052246
-6.085793959822245e-05 0.001282350070531476
-6.783597208230414e-05 0.001280897561392504
-7.530313814889396e-05 0.001277252487375617
-8.202924784445504e-05 0.0012714229503381885
-8.818298880960785e-05 0.0012668329573923293
-9.51164314225355e-05 0.0012639610838734272
-0.00010262835279400226 0.00125924192064408
-0.00010919423122886487 0.0012518475741232532
-0.00011524147162000228 0.0012458457435720472
-0.00012221838725381422 0.0012418723176087006
-0.00013019901973142345 0.0012357887010391415
-0.000136961962500971 0.0012261438493736852
-0.00014294148729084325 0.0012181489127260873
-0.00014977896222469997 0.0012128356981305573
-0.00015756870110461392 0.0012053424262786626
-0.00016449656287757068 0.0011938840522766295
-0.0001702400331724907 0.0011835870289376982
-0.00017701664430066054 0.001177063256754502
-0.00018469714379396496 0.0011682472103463552
-0.00019192745268158796 0.0011551038031901654
-0.0001979184599283899 0.0011426833275400528
-0.0002045773017798873 0.0011337478197450187
-0.00021217828333131467 0.0011232149552866356
-0.00021940346565618433 0.0011077451563974296
-0.0002251889363852994 0.0010928263559471189
-0.0002316225291104239 0.0010821092978475363
-0.00023921707054241908 0.0010697795884059595
-0.00024663898162290723 0.0010521894917407443
-0.000252517990221153 0.0010346851081293276
-0.0002588844872714619 0.0010214385185270498
-0.00026661206260757635 0.0010068409138178597
-0.00027404876677628167 0.0009861433494783426
-0.0002797177368182941 0.0009652754880526476
-0.00028584338719833116 0.0009492227968737696
-0.000293321025004109 0.0009317389664740619
-0.0003010646378911436 0.0009080661200052149
-0.00030686192551652915 0.000883373404505151
-0.0003129223585758793 0.0008633216002247963
-0.00032093347260139115 0.0008422663334552752
-0.00032824768390479086 0.0008139969713389964
-0.00033426048079296427 0.0007842284280041056
-0.00034022331977689925 0.000758478336751248
-0.0003482601524032917 0.0007314029022106535
-0.00035570231758801345 0.000696620714429763
-0.00036170817076752114 0.00065827907271223
-0.000367300690210244 0.0006242266122540554
-0.00037498153296314045 0.0005883033789791286
-0.0003827444505703701 0.0005423543408017095
-0.0003884691065890986 0.0004904221337946812
-0.0003937665792247799 0.0004384487921764482
-0.00040148869188915884 0.00037798719714544465
-0.0004055143289345342 0.0002984022001353378
-0.00040118672285823783 0.00019004817244536816
-0.00037805459470257837 0.0
-0.00034263326531655715 0.0
-0.0003184470753708093 0.0
-0.00029850837384831256 0.0
-0.00028374123714796295 0.0
-0.0002712040767446658 0.0
-0.00026030116043430305 0.0
-0.00025057718021745677 0.0
-0.0002418807922190077 0.0
-0.0002338805684189281 0.0
-0.00022656533640841528 0.0
-0.0002197939824389478 0.0
-0.00021345224080403984 0.0
-0.00020754033497224955 0.0
-0.00020201772670180366 0.0
-0.00019681812825870913 0.0
-0.00019191789100296436 0.0
-0.0001872409099301527 0.0
-0.00018281427763374873 0.0
-0.00017860351210768018 0.0
-0.0001745736071943792 0.0
-0.00017072087229250447 0.0
-0.0001670538345473401 0.0
-0.000163519561218776 0.0
-0.00016011408916373872 0.0
-0.00015684929510522444 0.0
-0.0001537057660305864 0.0
-0.00015068168298758123 0.0
-0.000147754108472515 0.0
-0.00014492435254461267 0.0
-0.00014218692753435527 0.0
-0.000139531587977234 0.0
-0.00013695756268846952 0.0
-0.0001344675217692932 0.0
-0.00013204854858334691 0.0
-0.00012968845544018278 0.0
-0.0001273950766416614 0.0
-0.00012515628815373172 0.0
-0.0001229843175245195 0.0
-0.00012086757264405082 0.0
-0.00011881170452336963 0.0
-0.00011681134627662558 0.0
-0.00011486462821405667 0.0
-0.00011296816164411546 0.0
-0.00011110844764214665 0.0
-0.00010930231700132758 0.0
-0.00010755419409272031 0.0
-0.00010582101161599433 0.0
-0.00010413934576583513 0.0
-0.00010249775592231593 0.0
-0.00010088654550592896 0.0
-9.931145834055141e-05 0.0
-9.776985308082251e-05 0.0
-9.625541313219494e-05 0.0
-9.477258081956545e-05 0.0
-9.332140648505109e-05 0.0
-9.189959270868088e-05 0.0
-9.051313011917098e-05 0.0
-8.913489270091122e-05 0.0
-8.779447603338629e-05 0.0
-8.647563823171325e-05 0.0
-8.518651592682643e-05 0.0
-8.391513106681669e-05 0.0
-8.267120802348637e-05 0.0
-8.145023751860582e-05 0.0
-8.025224411409304e-05 0.0
-7.907599519823639e-05 0.0
-7.792219173585751e-05 0.0
-7.678953090047557e-05 0.0
-7.567694053246586e-05 0.0
-7.458344022532219e-05 0.0
-7.351143889279847e-05 0.0
-7.246100241169396e-05 0.0
-7.141960539095689e-05 0.0
-7.039965477526931e-05 0.0
-6.939403815879151e-05 0.0
-6.840454164725353e-05 0.0
-6.742923272621588e-05 0.0
-6.646839828120358e-05 0.0
-6.55226395642024e-05 0.0
-6.459118589265612e-05 0.0
-6.367358542033966e-05 0.0
-6.276804273881965e-05 0.0
-6.18765298612159e-05 0.0
-6.099866691968258e-05 0.0
-6.013334707068929e-05 0.0
-5.9281510354947516e-05 0.0
-5.844225262834032e-05 0.0
-5.76148269812204e-05 0.0
-5.679976244733966e-05 0.0
-5.59969902542785e-05 0.0
-5.520530941368746e-05 0.0
-5.44246223828451e-05 0.0
-5.365604991565527e-05 0.0
-5.289985923628016e-05 0.0
-5.215044099470002e-05 0.0
-5.141494551392678e-05 0.0
-5.068820056660661e-05 0.0
-4.997112330887439e-05 0.0
-4.9264872019671805e-05 0.0
-4.856302446146538e-05 0.0
-4.7873415176445985e-05 0.0
-4.719192650973946e-05 0.0
-4.65183525191611e-05 0.0
-4.58531451202604e-05 0.0
-4.5195744774004516e-05 0.0
-4.454579647380951e-05 0.0
-4.390308718700869e-05 0.0
-4.326801797930472e-05 0.0
-4.264011800582629e-05 0.0
-4.201897666549818e-05 0.0
-4.140586457662071e-05 0.0
-4.080063723923598e-05 0.0
-4.020244202967695e-05 0.0
-3.961142118851959e-05 0.0
-3.9028164629697725e-05 0.0
-3.845264062487766e-05 0.0
-3.788362040289657e-05 0.0
-3.732197456706043e-05 0.0
-3.67678252196825e-05 0.0
-3.622045894201536e-05 0.0
-3.5679915945422e-05 0.0
-3.5146153267389854e-05 0.0
-3.461947033058981e-05 0.0
-3.4098843686973506e-05 0.0
-3.358460657740342e-05 0.0
-3.3076547473282224e-05 0.0
-3.257437106006736e-05 0.0
-3.2078144003805855e-05 0.0
-3.1587850230409475e-05 0.0
-3.110260073095684e-05 0.0
-3.062265110461118e-05 0.0
-3.0147570312195288e-05 0.0
-2.967749085966e-05 0.0
-2.921266774516977e-05 0.0
-2.8752207417092055e-05 0.0
-2.8295977305537078e-05 0.0
-2.7844574786809552e-05 0.0
-2.7397094558478888e-05 0.0
-2.6953902906508746e-05 0.0
-2.6515159743489872e-05 0.0
-2.6080653669227373e-05 0.0
-2.5650126123206836e-05 0.0
-2.5224399059152416e-05 0.0
-2.480156029978399e-05 0.0
-2.438294089181548e-05 0.0
-2.3968446167243398e-05 0.0
-2.3558411126677367e-05 0.0
-2.315235769894067e-05 0.0
-2.2750513034714115e-05 0.0
-2.2352861565970106e-05 0.0
-2.1959144576825288e-05 0.0
-2.15696555050434e-05 0.0
-2.1185230624020286e-05 0.0
-2.0803358398891298e-05 0.0
-2.042633627711321e-05 0.0
-2.0053683246802383e-05 0.0
-1.9684804609023688e-05 0.0
-1.9320003263794106e-05 0.0
-1.8959365989729773e-05 0.0
-1.860263957391298e-05 0.0
-1.824968352732677e-05 0.0
-1.7900649486847623e-05 0.0
-1.7555430556420588e-05 0.0
-1.7213869337694977e-05 0.0
-1.6876107249453227e-05 0.0
-1.6541821391099912e-05 0.0
-1.6210969377324643e-05 0.0
-1.5883586088982468e-05 0.0
-1.5559374249720818e-05 0.0
-1.5238212890435873e-05 0.0
-1.4920299252425092e-05 0.0
-1.4605520068549791e-05 0.0
-1.4293475866881326e-05 0.0
-1.3984585503883431e-05 0.0
-1.3678417614911092e-05 0.0
-1.337520772839398e-05 0.0
-1.307476495488212e-05 0.0
-1.2776947263806682e-05 0.0
-1.2481756923144329e-05 0.0
-1.2189189010305804e-05 0.0
-1.189923368238381e-05 0.0
-1.161174635911011e-05 0.0
-1.1326920712855427e-05 0.0
-1.1044901601147407e-05 0.0
-1.0765305451172122e-05 0.0
-1.0488263470497383e-05 0.0
-1.021408387404235e-05 0.0
-9.942561248617694e-06 0.0
-9.67368534126535e-06 0.0
-9.407545923773508e-06 0.0
-9.144120649484846e-06 0.0
-8.883380241912792e-06 0.0
-8.62554376930011e-06 0.0
-8.370387449023688e-06 0.0
-8.118132683195911e-06 0.0
-7.868744805490393e-06 0.0
-7.622288132758206e-06 0.0
-7.378726504813542e-06 0.0
-7.138059521017903e-06 0.0
-6.900207521820641e-06 0.0
-6.665190771551399e-06 0.0
-6.433064702320143e-06 0.0
-6.20365649925803e-06 0.0
-5.977122982660972e-06 0.0
-5.753411133160943e-06 0.0
-5.532392030346264e-06 0.0
-5.313775081201579e-06 0.0
-5.098035507849133e-06 0.0
-4.884519671727985e-06 0.0
-4.673945177602262e-06 0.0
-4.465281935210083e-06 0.0
-4.259084239315043e-06 0.0
-4.0551471415304715e-06 0.0
-3.853487344767025e-06 0.0
-3.6539729264663593e-06 0.0
-3.456438029331822e-06 0.0
-3.2609338933600415e-06 0.0
-3.0673382793079688e-06 0.0
-2.8756093066751705e-06 0.0
-2.6856538719091836e-06 0.0
-2.4974095096277925e-06 0.0
-2.3108689723491117e-06 0.0
-2.1258632339562737e-06 0.0
-1.942454546541176e-06 0.0
-1.7606939416012995e-06 0.0
-1.5804762515465422e-06 0.0
-1.4018694817432138e-06 0.0
-1.2242493069150533e-06 0.0
-1.0484543099943919e-06 0.0
-8.741355170870668e-07 0.0
-7.01420715205915e-07 0.0
-5.305183206578255e-07 0.0
-3.6073481346528083e-07 0.0
-1.9270293706512697e-07 0.0
-2.640275550244814e-08 0.0
1.381182267181044e-07 0.0
3.008966382646856e-07 0.0
4.6178597138701793e-07 0.0
6.208245133721532e-07 0.0
7.777875325092893e-07 0.0
9.32693015579817e-07 0.0
1.0854309762526138e-06 0.0
1.2358979263665986e-06 0.0
1.3840450928699862e-06 0.0
1.5297333206097378e-06 0.0
1.673380078698856e-06 0.0
1.8143365044271627e-06 0.0
1.9525942802252466e-06 0.0
2.0880749264902845e-06 0.0
2.220665448661461e-06 0.0
2.3509656567690305e-06 0.0
2.4783299849933003e-06 0.0
2.602833751443094e-06 0.0
2.7244192389528513e-06 0.0
2.842891941902849e-06 0.0
2.958258734638953e-06 0.0
3.0706412116142166e-06 0.0
3.180320636552216e-06 0.0
3.2868926689061392e-06 0.0
3.390373764385235e-06 0.0
3.4911292320522146e-06 0.0
3.5888831832122996e-06 0.0
3.6835536579381357e-06 0.0
3.7754571151180646e-06 0.0
3.864345120965371e-06 0.0
3.950483010490232e-06 0.0
4.033781451974073e-06 0.0
4.1142285578812654e-06 0.0
4.192144134575439e-06 0.0
4.267411159505953e-06 0.0
4.340168475262136e-06 0.0
4.410396714902783e-06 0.0
4.478255993128612e-06 0.0
4.543819713553953e-06 0.0
4.607181501110567e-06 0.0
4.668405318103403e-06 0.0
4.727416543259177e-06 0.0
4.784368694664726e-06 0.0
4.839340742344187e-06 0.0
4.892432147187226e-06 0.0
4.943675409372768e-06 0.0
4.993076761571905e-06 0.0
5.0405905329750175e-06 0.0
5.086553028803097e-06 0.0
5.130782274684148e-06 0.0
5.173510339566397e-06 0.0
5.214848574119596e-06 0.0
5.254498785271036e-06 0.0
5.292541312288917e-06 0.0
5.329342428903398e-06 0.0
5.364608602999852e-06 0.0
5.398572949664876e-06 0.0
5.431131647858378e-06 0.0
5.462131765251014e-06 0.0
5.49194840207582e-06 0.0
5.520396051205376e-06 0.0
5.547509498969208e-06 0.0
5.573406559285339e-06 0.0
5.597854632115774e-06 0.0
5.620886105408109e-06 0.0
5.642639187944046e-06 0.0
5.6629972087664546e-06 0.0
5.682001837910325e-06 0.0
5.6996514104667376e-06 0.0
5.715879651953714e-06 0.0
5.7307156867737e-06 0.0
5.744123692645173e-06 0.0
5.7562420749940524e-06 0.0
5.766916289569625e-06 0.0
5.776125801102477e-06 0.0
5.783884574442838e-06 0.0
5.7902156446768925e-06 0.0
5.795099841578541e-06 0.0
5.798566265036565e-06 0.0
5.800564050665078e-06 0.0
5.801128577604937e-06 0.0
5.800430873097813e-06 0.0
5.798237957807064e-06 0.0
5.794511693170835e-06 0.0
5.789519717593218e-06 0.0
5.783260176668364e-06 0.0
5.775523288886401e-06 0.0
5.766423897652099e-06 0.0
5.756087193854146e-06 0.0
5.744510687017765e-06 0.0
5.731676377970811e-06 0.0
5.7177092274076024e-06 0.0
5.7024943118887885e-06 0.0
5.6860589940665935e-06 0.0
5.6686145809151795e-06 0.0
5.650108675566208e-06 0.0
5.630574260977187e-06 0.0
5.610143089867409e-06 0.0
5.588682764036345e-06 0.0
5.5663179675988625e-06 0.0
5.543131404868014e-06 0.0
5.519096289817306e-06 0.0
5.4942852313790044e-06 0.0
5.468807636047271e-06 0.0
5.442652351112675e-06 0.0
5.415857959563185e-06 0.0
5.388465068356127e-06 0.0
5.360533934878924e-06 0.0
5.332097891891838e-06 0.0
5.303197345194862e-06 0.0
5.273861916760215e-06 0.0
5.244144690509638e-06 0.0
5.214070865021636e-06 0.0
5.183686889725201e-06 0.0
5.153026109632569e-06 0.0
5.122095254513077e-06 0.0
5.090927440088466e-06 0.0
5.059552174283663e-06 0.0
5.027983223323134e-06 0.0
4.996252452096473e-06 0.0
4.964386992779367e-06 0.0
4.9323869314033526e-06 0.0
4.900277968316494e-06 0.0
4.868066440528967e-06 0.0
4.835757145959727e-06 0.0
4.803361454051457e-06 0.0
4.7709032238504624e-06 0.0
4.738351854796793e-06 0.0
4.705725858586197e-06 0.0
4.673020264371643e-06 0.0
4.640244373704083e-06 0.0
4.6073939743981644e-06 0.0
4.57445560229622e-06 0.0
4.541426151376068e-06 0.0
4.508302031571869e-06 0.0
4.4750694806717615e-06 0.0
4.441714101376747e-06 0.0
4.4082396870828534e-06 0.0
4.374616973125997e-06 0.0
4.340844827432103e-06 0.0
4.306907134504792e-06 0.0
4.272792508814891e-06 0.0
4.238504171751769e-06 0.0
4.203999677359948e-06 0.0
4.169274635788523e-06 0.0
4.134316747662748e-06 0.0
4.099121284293634e-06 0.0
4.063669333117238e-06 0.0
4.027967549892538e-06 0.0
3.991971536830515e-06 0.0
3.955691069139888e-06 0.0
3.919118228496615e-06 0.0
3.882231342941832e-06 0.0
3.845033664945885e-06 0.0
3.8075202924337684e-06 0.0
3.7696802395105238e-06 0.0
3.7315083725972968e-06 0.0
3.6930009629485913e-06 0.0
3.6541371309501203e-06 0.0
3.614954361456994e-06 0.0
3.575420877335516e-06 0.0
3.5355491196339684e-06 0.0
3.4953357297229597e-06 0.0
3.4547814667243964e-06 0.0
3.413896344779282e-06 0.0
3.372694715014187e-06 0.0
3.3311868639963914e-06 0.0
3.289359904771622e-06 0.0
3.2472169450070634e-06 0.0
3.2047827287146246e-06 0.0
3.1620946573920667e-06 0.0
3.1191370768633597e-06 0.0
3.07593456111082e-06 0.0
3.0324959601550726e-06 0.0
2.9888400058838364e-06 0.0
2.94498009734247e-06 0.0
2.900936502496132e-06 0.0
2.8567323410153385e-06 0.0
2.8123778813989856e-06 0.0
2.7678964002139074e-06 0.0
2.7233079616867496e-06 0.0
2.678638212038678e-06 0.0
2.6339061783835595e-06 0.0
2.5891333753023784e-06 0.0
2.5443429297024234e-06 0.0
2.4995580214403473e-06 0.0
2.4547963941738857e-06 0.0
2.410086281764946e-06 0.0
2.365448562611775e-06 0.0
2.3209041667429997e-06 0.0
2.2764878812703095e-06 0.0
2.232199592868724e-06 0.0
2.1880714799573288e-06 0.0
2.1441334304461474e-06 0.0
2.1004055839156882e-06 0.0
2.0568978099094387e-06 0.0
2.013645066688329e-06 0.0
1.970666306560778e-06 0.0
1.927990115287183e-06 0.0
1.8856186985142518e-06 0.0
1.8435597853333148e-06 0.0
1.8018815091829875e-06 0.0
1.7181790302526588e-06 0.0
1.6725915377727797e-06 0.0
1.6236352450960307e-06 0.0
1.5711628625289927e-06 0.0
1.51506261907465e-06 0.0
1.455216695001504e-06 0.0
1.391565719166045e-06 0.0
1.324107554276682e-06 0.0
1.2528948517118913e-06 0.0
1.178053674585745e-06 0.0
1.0998661257223197e-06 0.0
1.0185744345862036e-06 0.0
9.348299028801466e-07 0.0
8.490618239181343e-07 0.0
7.620819277299395e-07 0.0
6.751278910688924e-07 0.0
5.89245525096435e-07 0.0
5.052207543847881e-07 0.0
4.2535862447572687e-07 0.0
3.499705517058382e-07 0.0
2.8062321615726855e-07 0.0
2.1858827539899602e-07 0.0
1.6545899860607104e-07 0.0
1.1991607519077613e-07 0.0
8.37104944732141e-08 0.0
5.5348781736168254e-08 0.0
3.471369484179016e-08 0.0
2.0516890568368973e-08 0.0
1.1249345205942e-08 0.0
5.719104021632486e-09 0.0
2.646749477063471e-09 0.0
1.0998397082637729e-09 0.0
3.9654381107386694e-10 0.0
1.2725874769326053e-10 0.0
3.4125133626181796e-11 0.0
7.270164831563124e-12 0.0
1.1746971174472838e-12 0.0
1.4496481514569563e-13 0.0
1.6551016819700365e-14 0.0
1.3067831038209925e-15 0.0
5.488250130752078e-17 0.0
1.64033938153419e-17 0.0
4.4260020311045166e-18 0.0
-1.416498735377467e-17 0.0
3.224728650499679e-17 0.0
8.242725109107411e-17 0.0
1.0855807096481438e-16 0.0
8.37583869404347e-17 0.0
7.920794405585283e-17 0.0
6.616748412057799e-17 0.0
-3.855980926806789e-17 0.0
-4.648893604537093e-18 0.0
8.612984758395905e-17 0.0
6.269512354680038e-17 0.0
6.690980975207794e-17 0.0
6.773359989204448e-17 0.0
2.3772034159004738e-17 0.0
1.2295937972829416e-16 0.0
1.4609870748289016e-17 0.0
-2.7419200229969353e-17 0.0
2.9517825095473337e-16 0.0
3.00603967459699e-16 0.0
4.13033530462221e-18 0.0
1.0548368742717003e-17 0.0
-1.8663330126615827e-16 0.0
-5.879665363857962e-17 0.0
1.8516775662367502e-16 0.0
4.519395418207846e-17 0.0
-1.5015063953135038e-16 0.0
3.360110987529864e-16 0.0
-1.1691448678237187e-16 0.0
3.468217065672888e-16 0.0
-3.952668622542803e-16 0.0
-1.4859046218712567e-16 0.0
9.174683205054729e-16 0.0
-1.8207872570385446e-16 0.0
-4.265930553412284e-16 0.0
2.4982484313627874e-16 0.0
-3.5892731262393955e-16 0.0
0.0 0.009234165287260006
0.0 0.022109785930454543
0.0 0.04006285207149628
0.0 0.06509563926318068
-4.564339696766156e-16 0.1
-7.358965293850161e-16 0.1
8.787697391503797e-15 0.1
-9.93993073253285e-15 0.1
0.0 0.0923409595166244
0.0 0.0852677944370288
0.0 0.0787356878349781
0.0 0.07270325358167609
0.0 0.06713226878995199
0.0 0.06198743331092633
0.0 0.05723615233795644
0.0 0.05284831692952347
0.0 0.048796128449949246
0.0 0.04505391065784023
0.0 0.04159795282712024
0.0 0.03840635724257356
0.0 0.035458901718223
0.0 0.03273691087332897
0.0 0.030223137736033436
0.0 0.02790165483820619
0.0 0.02575775300196177
0.0 0.023777848352115535
0.0 0.021949395807803466
0.0 0.020260810255896013
0.0 0.018701392223654488
0.0 0.017261261595035708
0.0 0.015931293336680585
0.0 0.01470306037294062
0.0 0.013568780782905899
0.0 0.01252126748285634
0.0 0.011553883413502495
0.0 0.010660499144075368
0.0 0.009835453922173812
0.0 0.00907352033028967
0.0 0.00836987064718797
0.0 0.007720046212179138
0.0 0.007119929237024758
0.0 0.00656573358305305
0.0 0.00605382459630622
0.0 0.005581790963867302
0.0 0.0051491411678555215
0.0 0.0047526959829703
0.0 0.0043890232803623155
0.0 0.004056159929150331
0.0 0.0037511305712821315
0.0 0.0034735064675318313
0.0 0.0032205787488216423
0.0 0.0029910660173936726
0.0 0.0027826567396641213
0.0 0.0025939233422653434
0.0 0.002423521593805705
0.0 0.002270154089830927
0.0 0.0021321456826071616
0.0 0.0020089754543428785
0.0 0.0019001382300595337
0.0 0.001803784183813414
0.0 0.001719339303564125
0.0 0.0016461734134838664
0.0 0.0015828904926259207
0.0 0.00152921156699794
0.0 0.0014839743274444562
0.0 0.001446734478144973
0.0 0.001416498689858762
0.0 0.0013924793206465502
0.0 0.0013736411550930743
0.0 0.001359401966207743
0.0 0.0013491456515844198
0.0 0.0013410879598507995
0.0 0.0013360542376161454
0.0 0.0013317454328069993
0.0 0.0013290221388284238
0.0 0.0013271330465790057
0.0 0.0013256678912384324
0.0 0.001324531196027972
0.0 0.001323263312391516
0.0 0.0013219831145018634
0.0 0.001320461199854377
0.0 0.0013187891851322892
0.0 0.001316875721236293
0.0 0.001314898850447675
0.0 0.0013127751605531168
0.0 0.001310529784512701
0.0 0.0013081962900141331
0.0 0.0013057556178879435
0.0 0.001303403838749478
0.0 0.0013010741759021522
0.0 0.0012987631962803176
-1.837272355306761e-10 0.004927244775864626
1.721746285367859e-05 0.0027849735614456214
6.0858738290973786e-05 0.001602639642162713
9.064160762630896e-05 0.0011079885124682944
1.9713994869327734e-05 0.001401612647030118
3.9485342036872354e-07 0.00225995328423896
0.00010830688499218812 0.0010055633402336025
5.52729149317357e-06 0.0012875283086142097
1.6921781239119094e-05 0.0008069299115002744
7.002395507673796e-06 0.0007667120545685555
8.037049848317207e-06 0.0007051386822455002
6.931230624730793e-06 0.0006762668573691378
-1.8019555936613233e-16 0.014973736461407778
4.024055799464724e-06 0.0006659841498400113
1.666368999323413e-05 0.0005548287875753037
-1.9546200603828496e-05 0.00046248363362321365
1.7759236553955403e-07 0.0011704530843438565
4.222354454468146e-05 0.0011684870420307471
-2.1247163216068568e-05 0.000394788933482248
-1.0055335677246497e-05 0.00042108940974444045
-3.018437806666248e-06 0.00039673841228331333