# vtk DataFile Version 3.0
Some data
ASCII
DATASET UNSTRUCTURED_GRID
POINTS 7930 float
0.0 0.0 0.0
0.0 10.0 0.0
10.0 10.0 0.0
10.0 0.0 0.0
0.5 0.0 0.0
0.0009999999999981016 0.0 0.0
0.001999999999996203 0.0 0.0
0.002999999999994305 0.0 0.0
0.003999999999992409 0.0 0.0
0.004999999999990531 0.0 0.0
0.005999999999988653 0.0 0.0
0.006999999999986775 0.0 0.0
0.007999999999984898 0.0 0.0
0.008999999999983018 0.0 0.0
0.009999999999981142 0.0 0.0
0.01099999999997926 0.0 0.0
0.01199999999997736 0.0 0.0
0.0129999999999754 0.0 0.0
0.01399999999997343 0.0 0.0
0.01499999999997147 0.0 0.0
0.01599999999996944 0.0 0.0
0.0169999999999673 0.0 0.0
0.01799999999996516 0.0 0.0
0.01899999999996302 0.0 0.0
0.01999999999996084 0.0 0.0
0.02099999999995862 0.0 0.0
0.02199999999995639 0.0 0.0
0.02299999999995417 0.0 0.0
0.02399999999995195 0.0 0.0
0.02499999999994972 0.0 0.0
0.0259999999999475 0.0 0.0
0.02699999999994527 0.0 0.0
0.02799999999994315 0.0 0.0
0.0289999999999411 0.0 0.0
0.02999999999993905 0.0 0.0
0.030999999999937 0.0 0.0
0.03199999999993521 0.0 0.0
0.0329999999999335 0.0 0.0
0.0339999999999318 0.0 0.0
0.03499999999993009 0.0 0.0
0.03599999999992853 0.0 0.0
0.036999999999927 0.0 0.0
0.03799999999992547 0.0 0.0
0.03899999999992394 0.0 0.0
0.03999999999992241 0.0 0.0
0.04099999999992088 0.0 0.0
0.04199999999991934 0.0 0.0
0.04299999999991782 0.0 0.0
0.04399999999991629 0.0 0.0
0.04499999999991475 0.0 0.0
0.04599999999991322 0.0 0.0
0.0469999999999117 0.0 0.0
0.04799999999991016 0.0 0.0
0.04899999999990863 0.0 0.0
0.0499999999999071 0.0 0.0
0.05099999999990557 0.0 0.0
0.05199999999990404 0.0 0.0
0.05299999999990251 0.0 0.0
0.05399999999990097 0.0 0.0
0.05499999999989943 0.0 0.0
0.05599999999989791 0.0 0.0
0.05699999999989638 0.0 0.0
0.05799999999989484 0.0 0.0
0.05899999999989317 0.0 0.0
0.05999999999989129 0.0 0.0
0.06099999999988941 0.0 0.0
0.06199999999988753 0.0 0.0
0.06299999999988531 0.0 0.0
0.06399999999988273 0.0 0.0
0.06499999999988015 0.0 0.0
0.06599999999987759 0.0 0.0
0.0669999999998748 0.0 0.0
0.06799999999987189 0.0 0.0
0.06899999999986897 0.0 0.0
0.06999999999986604 0.0 0.0
0.07099999999986313 0.0 0.0
0.0719999999998602 0.0 0.0
0.07299999999985729 0.0 0.0
0.07399999999985438 0.0 0.0
0.07499999999985145 0.0 0.0
0.07599999999984854 0.0 0.0
0.07699999999984562 0.0 0.0
0.0779999999998427 0.0 0.0
0.07899999999983978 0.0 0.0
0.07999999999983685 0.0 0.0
0.08099999999983394 0.0 0.0
0.08199999999983103 0.0 0.0
0.0829999999998281 0.0 0.0
0.08399999999982519 0.0 0.0
0.08499999999982226 0.0 0.0
0.08599999999981935 0.0 0.0
0.08699999999981643 0.0 0.0
0.0879999999998135 0.0 0.0
0.08899999999981059 0.0 0.0
0.08999999999980766 0.0 0.0
0.09099999999980475 0.0 0.0
0.09199999999980184 0.0 0.0
0.09299999999979891 0.0 0.0
0.093999999999796 0.0 0.0
0.09499999999979307 0.0 0.0
0.09599999999979016 0.0 0.0
0.09699999999978724 0.0 0.0
0.09799999999978432 0.0 0.0
0.0989999999997814 0.0 0.0
0.09999999999977847 0.0 0.0
0.1009999999997756 0.0 0.0
0.1019999999997726 0.0 0.0
0.1029999999997697 0.0 0.0
0.1039999999997668 0.0 0.0
0.1049999999997639 0.0 0.0
0.105999999999761 0.0 0.0
0.106999999999758 0.0 0.0
0.1079999999997551 0.0 0.0
0.1089999999997522 0.0 0.0
0.1099999999997493 0.0 0.0
0.1109999999997464 0.0 0.0
0.1119999999997434 0.0 0.0
0.1129999999997405 0.0 0.0
0.1139999999997376 0.0 0.0
0.1149999999997347 0.0 0.0
0.1159999999997318 0.0 0.0
0.1169999999997288 0.0 0.0
0.1179999999997259 0.0 0.0
0.118999999999723 0.0 0.0
0.1199999999997201 0.0 0.0
0.1209999999997172 0.0 0.0
0.1219999999997143 0.0 0.0
0.1229999999997113 0.0 0.0
0.1239999999997084 0.0 0.0
0.1249999999997055 0.0 0.0
0.1259999999997026 0.0 0.0
0.1269999999996997 0.0 0.0
0.1279999999996967 0.0 0.0
0.1289999999996938 0.0 0.0
0.1299999999996909 0.0 0.0
0.130999999999688 0.0 0.0
0.1319999999996851 0.0 0.0
0.1329999999996822 0.0 0.0
0.1339999999996792 0.0 0.0
0.1349999999996764 0.0 0.0
0.1359999999996734 0.0 0.0
0.1369999999996705 0.0 0.0
0.1379999999996676 0.0 0.0
0.1389999999996647 0.0 0.0
0.1399999999996618 0.0 0.0
0.1409999999996588 0.0 0.0
0.1419999999996559 0.0 0.0
0.142999999999653 0.0 0.0
0.1439999999996501 0.0 0.0
0.1449999999996472 0.0 0.0
0.1459999999996442 0.0 0.0
0.1469999999996414 0.0 0.0
0.1479999999996384 0.0 0.0
0.1489999999996355 0.0 0.0
0.1499999999996326 0.0 0.0
0.1509999999996297 0.0 0.0
0.1519999999996268 0.0 0.0
0.1529999999996239 0.0 0.0
0.1539999999996209 0.0 0.0
0.154999999999618 0.0 0.0
0.1559999999996151 0.0 0.0
0.1569999999996122 0.0 0.0
0.1579999999996093 0.0 0.0
0.1589999999996064 0.0 0.0
0.1599999999996035 0.0 0.0
0.1609999999996005 0.0 0.0
0.1619999999995976 0.0 0.0
0.1629999999995947 0.0 0.0
0.1639999999995918 0.0 0.0
0.1649999999995889 0.0 0.0
0.165999999999586 0.0 0.0
0.1669999999995831 0.0 0.0
0.1679999999995801 0.0 0.0
0.1689999999995772 0.0 0.0
0.1699999999995743 0.0 0.0
0.1709999999995714 0.0 0.0
0.1719999999995685 0.0 0.0
0.1729999999995655 0.0 0.0
0.1739999999995626 0.0 0.0
0.1749999999995597 0.0 0.0
0.1759999999995568 0.0 0.0
0.1769999999995539 0.0 0.0
0.177999999999551 0.0 0.0
0.178999999999548 0.0 0.0
0.1799999999995451 0.0 0.0
0.1809999999995422 0.0 0.0
0.1819999999995393 0.0 0.0
0.1829999999995364 0.0 0.0
0.1839999999995335 0.0 0.0
0.1849999999995305 0.0 0.0
0.1859999999995277 0.0 0.0
0.1869999999995247 0.0 0.0
0.1879999999995218 0.0 0.0
0.1889999999995189 0.0 0.0
0.189999999999516 0.0 0.0
0.1909999999995131 0.0 0.0
0.1919999999995101 0.0 0.0
0.1929999999995072 0.0 0.0
0.1939999999995043 0.0 0.0
0.1949999999995014 0.0 0.0
0.1959999999994985 0.0 0.0
0.1969999999994956 0.0 0.0
0.1979999999994927 0.0 0.0
0.1989999999994897 0.0 0.0
0.1999999999994868 0.0 0.0
0.2009999999994839 0.0 0.0
0.201999999999481 0.0 0.0
0.2029999999994781 0.0 0.0
0.2039999999994752 0.0 0.0
0.2049999999994722 0.0 0.0
0.2059999999994693 0.0 0.0
0.2069999999994664 0.0 0.0
0.2079999999994635 0.0 0.0
0.2089999999994606 0.0 0.0
0.2099999999994577 0.0 0.0
0.2109999999994548 0.0 0.0
0.2119999999994518 0.0 0.0
0.2129999999994489 0.0 0.0
0.213999999999446 0.0 0.0
0.2149999999994431 0.0 0.0
0.2159999999994402 0.0 0.0
0.2169999999994373 0.0 0.0
0.2179999999994343 0.0 0.0
0.2189999999994314 0.0 0.0
0.2199999999994285 0.0 0.0
0.2209999999994256 0.0 0.0
0.2219999999994227 0.0 0.0
0.2229999999994198 0.0 0.0
0.2239999999994168 0.0 0.0
0.2249999999994139 0.0 0.0
0.225999999999411 0.0 0.0
0.2269999999994081 0.0 0.0
0.2279999999994052 0.0 0.0
0.2289999999994023 0.0 0.0
0.2299999999993994 0.0 0.0
0.2309999999993964 0.0 0.0
0.2319999999993935 0.0 0.0
0.2329999999993906 0.0 0.0
0.2339999999993877 0.0 0.0
0.2349999999993848 0.0 0.0
0.2359999999993818 0.0 0.0
0.236999999999379 0.0 0.0
0.237999999999376 0.0 0.0
0.2389999999993731 0.0 0.0
0.2399999999993702 0.0 0.0
0.2409999999993673 0.0 0.0
0.2419999999993644 0.0 0.0
0.2429999999993615 0.0 0.0
0.2439999999993585 0.0 0.0
0.2449999999993556 0.0 0.0
0.2459999999993527 0.0 0.0
0.246999999999351 0.0 0.0
0.2479999999993495 0.0 0.0
0.248999999999348 0.0 0.0
0.2499999999993464 0.0 0.0
0.2509999999993477 0.0 0.0
0.2519999999993489 0.0 0.0
0.2529999999993502 0.0 0.0
0.2539999999993516 0.0 0.0
0.2549999999993542 0.0 0.0
0.2559999999993569 0.0 0.0
0.2569999999993595 0.0 0.0
0.2579999999993621 0.0 0.0
0.2589999999993647 0.0 0.0
0.2599999999993673 0.0 0.0
0.26099999999937 0.0 0.0
0.2619999999993726 0.0 0.0
0.2629999999993753 0.0 0.0
0.2639999999993779 0.0 0.0
0.2649999999993806 0.0 0.0
0.2659999999993832 0.0 0.0
0.2669999999993858 0.0 0.0
0.2679999999993884 0.0 0.0
0.2689999999993911 0.0 0.0
0.2699999999993937 0.0 0.0
0.2709999999993963 0.0 0.0
0.271999999999399 0.0 0.0
0.2729999999994017 0.0 0.0
0.2739999999994043 0.0 0.0
0.2749999999994069 0.0 0.0
0.2759999999994096 0.0 0.0
0.2769999999994122 0.0 0.0
0.2779999999994148 0.0 0.0
0.2789999999994174 0.0 0.0
0.2799999999994201 0.0 0.0
0.2809999999994228 0.0 0.0
0.2819999999994254 0.0 0.0
0.282999999999428 0.0 0.0
0.2839999999994306 0.0 0.0
0.2849999999994333 0.0 0.0
0.2859999999994359 0.0 0.0
0.2869999999994385 0.0 0.0
0.2879999999994411 0.0 0.0
0.2889999999994439 0.0 0.0
0.2899999999994465 0.0 0.0
0.2909999999994491 0.0 0.0
0.2919999999994517 0.0 0.0
0.2929999999994544 0.0 0.0
0.293999999999457 0.0 0.0
0.2949999999994596 0.0 0.0
0.2959999999994622 0.0 0.0
0.2969999999994649 0.0 0.0
0.2979999999994676 0.0 0.0
0.2989999999994702 0.0 0.0
0.2999999999994728 0.0 0.0
0.3009999999994754 0.0 0.0
0.3019999999994781 0.0 0.0
0.3029999999994807 0.0 0.0
0.3039999999994834 0.0 0.0
0.304999999999486 0.0 0.0
0.3059999999994886 0.0 0.0
0.3069999999994913 0.0 0.0
0.3079999999994939 0.0 0.0
0.3089999999994965 0.0 0.0
0.3099999999994992 0.0 0.0
0.3109999999995018 0.0 0.0
0.3119999999995045 0.0 0.0
0.3129999999995071 0.0 0.0
0.3139999999995097 0.0 0.0
0.3149999999995123 0.0 0.0
0.315999999999515 0.0 0.0
0.3169999999995176 0.0 0.0
0.3179999999995203 0.0 0.0
0.3189999999995229 0.0 0.0
0.3199999999995256 0.0 0.0
0.3209999999995282 0.0 0.0
0.3219999999995308 0.0 0.0
0.3229999999995334 0.0 0.0
0.323999999999536 0.0 0.0
0.3249999999995387 0.0 0.0
0.3259999999995414 0.0 0.0
0.326999999999544 0.0 0.0
0.3279999999995466 0.0 0.0
0.3289999999995493 0.0 0.0
0.3299999999995519 0.0 0.0
0.3309999999995545 0.0 0.0
0.3319999999995571 0.0 0.0
0.3329999999995598 0.0 0.0
0.3339999999995625 0.0 0.0
0.3349999999995651 0.0 0.0
0.3359999999995677 0.0 0.0
0.3369999999995703 0.0 0.0
0.337999999999573 0.0 0.0
0.3389999999995756 0.0 0.0
0.3399999999995783 0.0 0.0
0.3409999999995809 0.0 0.0
0.3419999999995835 0.0 0.0
0.3429999999995862 0.0 0.0
0.3439999999995888 0.0 0.0
0.3449999999995914 0.0 0.0
0.345999999999594 0.0 0.0
0.3469999999995967 0.0 0.0
0.3479999999995994 0.0 0.0
0.348999999999602 0.0 0.0
0.3499999999996046 0.0 0.0
0.3509999999996072 0.0 0.0
0.3519999999996099 0.0 0.0
0.3529999999996125 0.0 0.0
0.3539999999996151 0.0 0.0
0.3549999999996178 0.0 0.0
0.3559999999996205 0.0 0.0
0.3569999999996231 0.0 0.0
0.3579999999996257 0.0 0.0
0.3589999999996283 0.0 0.0
0.359999999999631 0.0 0.0
0.3609999999996336 0.0 0.0
0.3619999999996362 0.0 0.0
[...]
POINT_DATA 7930
SCALARS Disp float 2
LOOKUP_TABLE default
0.0 0.000875855943445127
0.0 0.1
0.0 0.1
0.0 0.0
8.796343905479476e-11 0.0
-6.827900456150923e-06 0.0008755506668519855
-1.3657483402675905e-05 0.0008749839607202063
-2.0476209741008536e-05 0.0008737118922308864
-2.7171581061329828e-05 0.0008713250603502407
-3.3669208885633995e-05 0.0008690584356909806
-4.0676504086203695e-05 0.0008676194604761797
-4.808816934373968e-05 0.0008643699344805607
-5.4851154949455583e-05 0.0008588591792363236
-6.110876570487422e-05 0.0008539690947055124
-6.77124691657345e-05 0.0008506964791859821
-7.506331707709977e-05 0.0008460554795157571
-8.213395663511883e-05 0.0008384340643350753
-8.830469213504363e-05 0.000830961178366345
-9.501047830063522e-05 0.0008255236791202386
-0.00010267366805701273 0.0008187945300278342
-0.00010957134963158335 0.0008084158927957846
-0.00011567154067396371 0.0007981491434220461
-0.00012208539593499672 0.0007903243667933055
-0.00012990016993852347 0.0007813398405281435
-0.00013699058496864064 0.0007681180491820768
-0.00014307736255268823 0.0007546347634530384
-0.0001494309689876205 0.0007442254284765579
-0.0001571087449991608 0.0007326776442245295
-0.00016462964876356485 0.0007160267736742455
-0.00017063301136086025 0.0006982567676331298
-0.00017691132236577267 0.0006841370113340999
-0.00018420904170254304 0.0006689427357097824
-0.00019172252694599635 0.0006484050828915235
-0.00019762379109689192 0.0006264107706883493
-0.0002037075851977573 0.0006075437396025317
-0.00021089807389728385 0.0005878723945116158
-0.00021876609182197864 0.0005616517858948826
-0.00022503402080229905 0.0005325749907038685
-0.00023096301884199377 0.0005060595076293566
-0.0002381518193814567 0.0004777895851676688
-0.0002463689257270878 0.00044142270183679296
-0.00025220449378395476 0.0004000435129711454
-0.00025818807634938733 0.0003581712822226575
-0.00026433593964882265 0.00031063144891358937
-0.00027028530296417343 0.0002452590761615053
-0.00026748868933245594 0.0001543162657730774
-0.00025028650642370143 0.0
-0.00022257185968738367 0.0
-0.00020089136179072924 0.0
-0.00018702036015411178 0.0
-0.00017555881209457643 0.0
-0.00016624439052144004 0.0
-0.00015812666891851397 0.0
-0.0001509078014812273 0.0
-0.00014444667051983348 0.0
-0.00013861304307715265 0.0
-0.00013336166081715525 0.0
-0.00012854690985689002 0.0
-0.00012388126218647598 0.0
-0.00011967716649740596 0.0
-0.0001157745925266736 0.0
-0.00011212114815773296 0.0
-0.00010866426255300629 0.0
-0.00010541556434220339 0.0
-0.00010233715151921488 0.0
-9.939315241738855e-05 0.0
-9.6596204747186e-05 0.0
-9.39274999534057e-05 0.0
-9.13672696707243e-05 0.0
-8.892166140275612e-05 0.0
-8.6584926014681e-05 0.0
-8.433769540076573e-05 0.0
-8.217825707122471e-05 0.0
-8.010992003130589e-05 0.0
-7.812730639320203e-05 0.0
-7.621422955924723e-05 0.0
-7.437401509058955e-05 0.0
-7.260114690353307e-05 0.0
-7.088457012462994e-05 0.0
-6.923056957259144e-05 0.0
-6.763542793286292e-05 0.0
-6.60932684679716e-05 0.0
-6.460158654072358e-05 0.0
-6.315116329350427e-05 0.0
-6.174621001085989e-05 0.0
-6.0383065916444315e-05 0.0
-5.90560595282073e-05 0.0
-5.7764507998731186e-05 0.0
-5.6511484262030264e-05 0.0
-5.5286822973544386e-05 0.0
-5.409145298273977e-05 0.0
-5.2928602166325326e-05 0.0
-5.179540689066675e-05 0.0
-5.069234379274531e-05 0.0
-4.961477808077653e-05 0.0
-4.8564383989713505e-05 0.0
-4.753999417387694e-05 0.0
-4.653978268744471e-05 0.0
-4.556410232119375e-05 0.0
-4.461381318043971e-05 0.0
-4.368626295714681e-05 0.0
-4.2778254502204375e-05 0.0
-4.18915441127073e-05 0.0
-4.102276159227947e-05 0.0
-4.017458991101401e-05 0.0
-3.934399119852913e-05 0.0
-3.8532160238170365e-05 0.0
-3.773744074008076e-05 0.0
-3.695908495488137e-05 0.0
-3.619605275995148e-05 0.0
-3.544418001468911e-05 0.0
-3.470854555455584e-05 0.0
-3.399056369702988e-05 0.0
-3.327736346030763e-05 0.0
-3.258019317255258e-05 0.0
-3.189578551387073e-05 0.0
-3.122149302333614e-05 0.0
-3.055929555457912e-05 0.0
-2.9908690134632204e-05 0.0
-2.926819485964159e-05 0.0
-2.8639231092434842e-05 0.0
-2.802205038969567e-05 0.0
-2.7416139834438906e-05 0.0
-2.6823674283397296e-05 0.0
-2.6236518899637167e-05 0.0
-2.5662600637511058e-05 0.0
-2.5098187657919022e-05 0.0
-2.4545670644223965e-05 0.0
-2.400113446878533e-05 0.0
-2.3467236335976235e-05 0.0
-2.294300167744328e-05 0.0
-2.2428325001381408e-05 0.0
-2.19224148295207e-05 0.0
-2.1425604820939208e-05 0.0
-2.0937349413193027e-05 0.0
-2.045734658561505e-05 0.0
-1.9985142949268646e-05 0.0
-1.9521494159977086e-05 0.0
-1.9066392511844133e-05 0.0
-1.861553968438422e-05 0.0
-1.8172974681144142e-05 0.0
-1.7736437133821024e-05 0.0
-1.730637479165599e-05 0.0
-1.688209878315467e-05 0.0
-1.6463663994429763e-05 0.0
-1.6051253763395726e-05 0.0
-1.5644534662487703e-05 0.0
-1.5243353480044012e-05 0.0
-1.4847057640155966e-05 0.0
-1.4456281314723534e-05 0.0
-1.4070994430872243e-05 0.0
-1.3690799099286329e-05 0.0
-1.3315843462430847e-05 0.0
-1.2945944010656989e-05 0.0
-1.2581091475036833e-05 0.0
-1.2221375117801634e-05 0.0
-1.186695256218801e-05 0.0
-1.1517455226614103e-05 0.0
-1.117284981742632e-05 0.0
-1.0833800668769134e-05 0.0
-1.0500284109384664e-05 0.0
-1.0171365152437099e-05 0.0
-9.848029040987608e-06 0.0
-9.529832745182266e-06 0.0
-9.216979133622513e-06 0.0
-8.909636423239077e-06 0.0
-8.606454753821e-06 0.0
-8.308699896450455e-06 0.0
-8.01625858425955e-06 0.0
-7.728899446135943e-06 0.0
-7.446469582959117e-06 0.0
-7.16890329465241e-06 0.0
-6.895897881843277e-06 0.0
-6.6274379279475574e-06 0.0
-6.3635927417032484e-06 0.0
-6.104009377844071e-06 0.0
-5.848631225948333e-06 0.0
-5.597602142060811e-06 0.0
-5.3507322263566255e-06 0.0
-5.107684163809451e-06 0.0
-4.868431322365086e-06 0.0
-4.633006704766612e-06 0.0
-4.401205516586752e-06 0.0
-4.172607973433246e-06 0.0
-3.947412247502608e-06 0.0
-3.725487483081588e-06 0.0
-3.506604730928694e-06 0.0
-3.290744828906478e-06 0.0
-3.0777404312048583e-06 0.0
-2.8676528820339305e-06 0.0
-2.6602613491166433e-06 0.0
-2.45558108621446e-06 0.0
-2.253630148325445e-06 0.0
-2.054374189400972e-06 0.0
-1.8577040323534415e-06 0.0
-1.6637477794301058e-06 0.0
-1.4723399311497169e-06 0.0
-1.283565879612396e-06 0.0
-1.097398099144345e-06 0.0
-9.141350917916665e-07 0.0
-7.336974917306789e-07 0.0
-5.558830426465085e-07 0.0
-3.810342056332213e-07 0.0
-2.0906828673026748e-07 0.0
-4.013418956721625e-08 0.0
1.2577035866283846e-07 0.0
2.8863391442599015e-07 0.0
4.4798016964466073e-07 0.0
6.038751800060172e-07 0.0
7.562525729648409e-07 0.0
9.054481692092977e-07 0.0
1.0509266144321754e-06 0.0
1.1928197118554697e-06 0.0
1.33092907417195e-06 0.0
1.465138723959487e-06 0.0
1.5952922322145335e-06 0.0
1.7216653858116357e-06 0.0
1.8440540846794368e-06 0.0
1.9621516331542377e-06 0.0
2.0762586574078915e-06 0.0
2.1864059596484584e-06 0.0
2.292393172007632e-06 0.0
2.3941125152699027e-06 0.0
2.491592474943924e-06 0.0
2.585050107886418e-06 0.0
2.6742062883106147e-06 0.0
2.7593025289710155e-06 0.0
2.840460811854735e-06 0.0
2.9175967336279794e-06 0.0
2.990765190945562e-06 0.0
3.0598265668610627e-06 0.0
3.1251111917435196e-06 0.0
3.186658087275258e-06 0.0
3.244542282974472e-06 0.0
3.2991183909552104e-06 0.0
3.3500028965585806e-06 0.0
3.397413568634476e-06 0.0
3.441706413723091e-06 0.0
3.4827107089202903e-06 0.0
3.520587963643533e-06 0.0
3.5556410734408744e-06 0.0
3.5879038228274653e-06 0.0
3.6173046563943604e-06 0.0
3.6441177790992013e-06 0.0
3.6685273550014877e-06 0.0
3.6904756768893477e-06 0.0
3.7101222088828404e-06 0.0
3.7278124833713276e-06 0.0
3.7433831486534307e-06 0.0
3.756929160458764e-06 0.0
3.7687059163446644e-06 0.0
3.7785986774060234e-06 0.0
3.7868807874330456e-06 0.0
3.793537438149834e-06 0.0
3.7986364441320546e-06 0.0
3.802373486037101e-06 0.0
3.8047162462321006e-06 0.0
3.8056717482815887e-06 0.0
3.8054859524498114e-06 0.0
3.804102134866488e-06 0.0
3.801595371256477e-06 0.0
3.797934911482687e-06 0.0
3.79318757941766e-06 0.0
3.7873909624694443e-06 0.0
3.780602459045576e-06 0.0
3.772829472582024e-06 0.0
3.7641111485376795e-06 0.0
3.7544280360902806e-06 0.0
3.7438128252712863e-06 0.0
3.7323135657965216e-06 0.0
3.7198788430853913e-06 0.0
3.7065180648353963e-06 0.0
3.6922674652116628e-06 0.0
3.677016437225729e-06 0.0
3.661086541053329e-06 0.0
3.6441164260914093e-06 0.0
3.626219461451717e-06 0.0
3.607442315595221e-06 0.0
3.587709542146452e-06 0.0
3.567072512417504e-06 0.0
3.5454618987062517e-06 0.0
3.5229115759568155e-06 0.0
3.499447293090725e-06 0.0
3.475020115398758e-06 0.0
3.449691045657778e-06 0.0
3.423361949418988e-06 0.0
3.396043452599114e-06 0.0
3.3678304704897663e-06 0.0
3.3386657004057207e-06 0.0
3.3085941406007267e-06 0.0
3.277594572098443e-06 0.0
3.245645094190566e-06 0.0
3.2128082070443974e-06 0.0
3.1790647379695017e-06 0.0
3.1444710872000005e-06 0.0
3.10903426825972e-06 0.0
3.0727858797925308e-06 0.0
3.0356733182746144e-06 0.0
2.997780444434125e-06 0.0
2.959150501678528e-06 0.0
2.9197864172935365e-06 0.0
2.879722277049566e-06 0.0
2.8389887829326553e-06 0.0
2.7976243577963823e-06 0.0
2.7556561458876124e-06 0.0
2.7131384574154053e-06 0.0
2.670088142483669e-06 0.0
2.6265551062865546e-06 0.0
2.5825762725000382e-06 0.0
2.538191459170531e-06 0.0
2.49344633522618e-06 0.0
2.448382567779076e-06 0.0
2.403047145328608e-06 0.0
2.3574806843670974e-06 0.0
2.311719420435347e-06 0.0
2.2658077716259433e-06 0.0
2.2197922873668284e-06 0.0
2.173714721995069e-06 0.0
2.1276169083863407e-06 0.0
2.081539402357948e-06 0.0
2.035523759713266e-06 0.0
1.9896158848583764e-06 0.0
1.9438573694534434e-06 0.0
1.8982836260904743e-06 0.0
1.8529164439121902e-06 0.0
1.8078104640948102e-06 0.0
1.7630047053808433e-06 0.0
1.7185091991730276e-06 0.0
1.674378429692462e-06 0.0
1.6306552896046939e-06 0.0
1.587331487375397e-06 0.0
1.5444821057088524e-06 0.0
1.5021100043162548e-06 0.0
1.4602471080956273e-06 0.0
1.4189392562930518e-06 0.0
1.3781713049573493e-06 0.0
1.3379843159850374e-06 0.0
1.2983958417301786e-06 0.0
1.2594336673799076e-06 0.0
1.2211021384656705e-06 0.0
1.1834181733128094e-06 0.0
1.1463930901287455e-06 0.0
1.1100377477496025e-06 0.0
1.0743877286865789e-06 0.0
1.0394371578947615e-06 0.0
1.0051949721408356e-06 0.0
9.716623002685425e-07 0.0
9.388515138382386e-07 0.0
9.06778014968963e-07 0.0
8.754731255650796e-07 0.0
8.448579715784556e-07 0.0
8.150021412264446e-07 0.0
7.858589917455541e-07 0.0
7.574159228514504e-07 0.0
7.297416294297378e-07 0.0
7.028335611799186e-07 0.0
6.766002121854615e-07 0.0
6.51104710778244e-07 0.0
6.26304275172021e-07 0.0
6.022166866100698e-07 0.0
5.788754663383366e-07 0.0
5.56175691227557e-07 0.0
5.341718270333529e-07 0.0
5.128368749857712e-07 0.0
4.921368788941645e-07 0.0
4.7211535234413117e-07 0.0
4.527532405496349e-07 0.0
4.3400409260510225e-07 0.0
4.1588279956484496e-07 0.0
3.983719433211862e-07 0.0
3.814546366618918e-07 0.0
3.6512895545095993e-07 0.0
3.4937648967697403e-07 0.0
3.341783795945722e-07 0.0
3.1952505207879053e-07 0.0
3.0539713460505835e-07 0.0
2.9179841624235876e-07 0.0
2.7871140241831224e-07 0.0
2.6611719190922833e-07 0.0
2.540071248699874e-07 0.0
2.4236333610011473e-07 0.0
2.3118391477942465e-07 0.0
2.204426573481814e-07 0.0
2.1010256025719137e-07 0.0
2.0019392021370257e-07 0.0
1.9071390970435537e-07 0.0
1.816026419203491e-07 0.0
1.7285026228515072e-07 0.0
1.6448899445231812e-07 0.0
1.5648957326187554e-07 0.0
1.488209180386158e-07 0.0
1.4147877961807514e-07 0.0
1.3445802874494686e-07 0.0
1.2773207657794432e-07 0.0
1.21314816693438e-07 0.0
1.151974455992823e-07 0.0
1.0934107497881139e-07 0.0
1.0374862145869632e-07 0.0
9.841478595366074e-08 0.0
9.331111222226468e-08 0.0
8.845907675487147e-08 0.0
8.383519591207619e-08 0.0
7.942537581967158e-08 0.0
7.523151708102278e-08 0.0
7.124029200945021e-08 0.0
6.74333141047398e-08 0.0
6.381083801432573e-08 0.0
6.036672047541262e-08 0.0
5.709392298323557e-08 0.0
5.398206626806165e-08 0.0
5.10252010978913e-08 0.0
4.8216835481520884e-08 0.0
4.555148218073616e-08 0.0
4.3020594297647955e-08 0.0
4.0619459956981575e-08 0.0
3.834046466475497e-08 0.0
3.6177699901574366e-08 0.0
3.412897208309939e-08 0.0
3.218799620553677e-08 0.0
3.034892324194777e-08 0.0
2.8608377478232077e-08 0.0
2.696070912259638e-08 0.0
2.5399769492858063e-08 0.0
2.392365677267885e-08 0.0
2.2526414979115763e-08 0.0
2.120539309683483e-08 0.0
1.9957754762528464e-08 0.0
1.8778584152286232e-08 0.0
1.7661429926176807e-08 0.0
1.6609518622524237e-08 0.0
1.5616125735271095e-08 0.0
1.4679410017622115e-08 0.0
1.3794323184535258e-08 0.0
1.29592008730876e-08 0.0
1.217176217663352e-08 0.0
1.1429230511429282e-08 0.0
1.0728966967635039e-08 0.0
1.0068629725422864e-08 0.0
9.446811084027855e-09 0.0
8.861793360428697e-09 0.0
8.311001530916623e-09 0.0
7.792593309722504e-09 0.0
7.305085140518406e-09 0.0
6.846522162515047e-09 0.0
6.413965859515128e-09 0.0
6.008204091021005e-09 0.0
5.627091857599196e-09 0.0
5.2691407199503805e-09 0.0
4.9325583451367836e-09 0.0
4.616823953404373e-09 0.0
4.319285457480252e-09 0.0
4.040898185885098e-09 0.0
3.7795104354620344e-09 0.0
3.534097890418337e-09 0.0
3.304112914973723e-09 0.0
3.088329786499789e-09 0.0
2.885811782295912e-09 0.0
2.6959785101339836e-09 0.0
2.5180435791182957e-09 0.0
2.3513107700350114e-09 0.0
2.195604486610353e-09 0.0
2.0491843445436213e-09 0.0
1.912358670187568e-09 0.0
1.7842331261007978e-09 0.0
1.6644078176147307e-09 0.0
1.5524311743560376e-09 0.0
1.4476929082303138e-09 0.0
1.3495972677179107e-09 0.0
1.2576679753969326e-09 0.0
1.171921348793918e-09 0.0
1.0921132943588308e-09 0.0
1.0176178475080801e-09 0.0
9.476434096528901e-10 0.0
8.823954417216968e-10 0.0
8.213998621947909e-10 0.0
7.644943772816054e-10 0.0
7.113589869055692e-10 0.0
6.618290114895907e-10 0.0
6.156311215729049e-10 0.0
5.724373000583675e-10 0.0
5.32268188817628e-10 0.0
4.948537929409603e-10 0.0
4.600416328995217e-10 0.0
4.275371142846376e-10 0.0
3.972352006921294e-10 0.0
3.6899079752396355e-10 0.0
3.427164323588624e-10 0.0
3.1835630051292005e-10 0.0
2.955438303914459e-10 0.0
2.7434651961270623e-10 0.0
2.546335180210146e-10 0.0
2.3627211618106287e-10 0.0
2.1926544937531646e-10 0.0
2.0338412388200566e-10 0.0
1.8860300111069323e-10 0.0
1.7489306570300871e-10 0.0
1.6215967708968163e-10 0.0
1.5029912268369154e-10 0.0
1.3929492581522184e-10 0.0
1.2907651218574572e-10 0.0
1.196031638173537e-10 0.0
1.1079337286125658e-10 0.0
1.02582561722009e-10 0.0
9.500084417788819e-11 0.0
8.11980898451562e-11 0.0
7.44251659005494e-11 0.0
6.767640131254224e-11 0.0
6.101084672007326e-11 0.0
5.4495271223361845e-11 0.0
4.817610283545229e-11 0.0
4.2112451375938896e-11 0.0
3.6366877355705325e-11 0.0
3.0986313730551014e-11 0.0
2.601471835014163e-11 0.0
2.1499036979880434e-11 0.0
1.7442538739873914e-11 0.0
1.3889462538979335e-11 0.0
1.0816804785060945e-11 0.0
8.21637640570595e-12 0.0
6.093977376116e-12 0.0
4.400369288638837e-12 0.0
3.065437331001733e-12 0.0
2.0774867472968295e-12 0.0
1.348248130508662e-12 0.0
8.376216746943574e-13 0.0
4.952603581610065e-13 0.0
2.827845293185922e-13 0.0
1.4833585721805411e-13 0.0
7.473088294659538e-14 0.0
3.4329252773384356e-14 0.0
1.4758313412452557e-14 0.0
5.878803315666659e-15 0.0
2.091352839631389e-15 0.0
6.904447399304631e-16 0.0
2.151175040685968e-16 0.0
7.3641845808412e-17 0.0
3.800866389280818e-17 0.0
2.902987250426615e-17 0.0
2.2005609510541132e-17 0.0
1.7554471801935566e-17 0.0
1.39578307580039e-17 0.0
6.996755141652907e-18 0.0
7.337745931657287e-19 0.0
4.195650494803716e-18 0.0
1.663468388561586e-17 0.0
4.011799093779406e-17 0.0
6.352596872073792e-17 0.0
4.7117015212736696e-17 0.0
2.621328816517854e-17 0.0
2.2481051176608525e-17 0.0
4.7197072356476143e-17 0.0
5.81671826559779e-17 0.0
6.29198878057693e-17 0.0
6.591324591096358e-17 0.0
2.934805313048059e-17 0.0
5.1594216907488733e-17 0.0
3.0976600794217636e-17 0.0
-2.02469837501448e-17 0.0
1.5119564933568376e-17 0.0
1.4488595614227176e-17 0.0
3.724205244499732e-17 0.0
-9.204481322023712e-18 0.0
2.2080154340500875e-17 0.0
1.138531850638593e-16 0.0
6.704704368689061e-17 0.0
7.558540604354462e-17 0.0
1.0857204879213849e-16 0.0
-5.697816191575433e-17 0.0
1.8616046867331638e-16 0.0
-1.0061680040683608e-16 0.0
7.606714740536257e-17 0.0
7.364769438181859e-17 0.0
-1.1039188698895027e-16 0.0
2.1926680056848442e-16 0.0
-7.864203936904662e-17 0.0
5.215122511151159e-17 0.0
7.187057420896156e-17 0.0
-1.1837543364465687e-16 0.0
2.6259004802096304e-16 0.0
4.988866990147237e-17 0.0
-1.9286329453240469e-16 0.0
7.761085722161529e-17 0.0
-7.566966622448832e-17 0.0
0.0 0.009234165287258731
0.0 0.022109785930450352
0.0 0.04006285207152104
0.0 0.0650956392632206
-1.0602649512086814e-16 0.1
-1.5951988296399085e-16 0.1
1.963550450180917e-15 0.1
-2.3258090601890343e-15 0.1
0.0 0.09234095951662924
0.0 0.08526779443702795
0.0 0.07873568783498351
0.0 0.07270325358169426
0.0 0.06713226878994703
0.0 0.06198743331091991
0.0 0.057236152337951283
0.0 0.052848316929522826
0.0 0.04879612844994357
0.0 0.04505391065784184
0.0 0.041597952827125355
0.0 0.038406357242571305
0.0 0.035458901718223745
0.0 0.03273691087332747
0.0 0.03022313773603033
0.0 0.027901654838204958
0.0 0.02575775300195916
0.0 0.02377784835211334
0.0 0.02194939580780398
0.0 0.020260810255894386
0.0 0.0187013922236536
0.0 0.017261261595035538
0.0 0.01593129333668077
0.0 0.014703060372940372
0.0 0.013568780782904721
0.0 0.012521267482861148
0.0 0.011553883413523579
0.0 0.010660499143843273
0.0 0.00983545392283161
0.0 0.0090735203296379
0.0 0.008369870608788747
0.0 0.007720046303381158
0.0 0.007119930012363079
0.0 0.0065657194735013755
0.0 0.006053903138504603
0.0 0.005581237989623252
0.0 0.005144729245056207
0.0 0.004741610973715495
0.0 0.0043693302365441266
0.0 0.00402563419527808
0.0 0.003708933619537572
0.0 0.003418493506886731
0.0 0.0031527180200326627
0.0 0.0029088767771950027
0.0 0.00268533120950523
0.0 0.0024815276326845006
0.0 0.002295710028810798
0.0 0.0021267204377620106
0.0 0.001973325589494425
0.0 0.001834356891814431
0.0 0.0017085939667816463
0.0 0.0015951559186168818
0.0 0.0014932748159540632
0.0 0.0014022072109639682
0.0 0.0013209799365620232
0.0 0.00124914247972514
0.0 0.0011859390671918036
0.0 0.001131012645446075
0.0 0.0010838066597482416
0.0 0.0010436595840931206
0.0 0.001009814319184721
0.0 0.0009819781659693183
0.0 0.0009597040918232145
0.0 0.0009416843113341092
0.0 0.0009282695793536989
0.0 0.0009174038767687826
0.0 0.0009097902541542008
0.0 0.0009046359585052201
0.0 0.0009010759841087466
0.0 0.0008987508778168796
0.0 0.0008969602257013748
0.0 0.0008958092686307453
0.0 0.0008948107266494532
0.0 0.0008938747697935991
0.0 0.0008927388880484766
0.0 0.0008915163195178711
0.0 0.0008900654363694978
0.0 0.0008884108937293612
0.0 0.0008865921333579808
0.0 0.0008845504881375972
0.0 0.0008825004943488034
0.0 0.0008803372885391359
0.0 0.0008781043110534553
3.774417489094423e-16 0.004927245132662818
1.2024850914808995e-07 0.0027739855549227294
2.5108597024848583e-05 0.0015482092601810259
4.607890082918881e-05 0.00096885443123416
2.477902260680853e-06 0.0014050478316669191
6.468984307240274e-14 0.0022597849427000794
6.758988798339971e-05 0.0006885269078096113
5.706059212199088e-09 0.0012867752850741787
1.4417971304251133e-05 0.0007825799232450504
6.534375235709666e-06 0.000769705666207291
2.138607327458981e-06 0.00071003591684365
1.5124211840316577e-07 0.0006767987859784309
2.1069452354444136e-16 0.014973736461407785
2.5156334015657356e-09 0.0006657298754067358
8.938833223955449e-06 0.0004707396778950236
2.3565548062433805e-07 0.0004402187548059829
1.512931835391757e-13 0.0011704180816115592
6.71591781959988e-05 0.0007058535215587415
1.4281759603914825e-06 0.0003884482428348404
4.949570399059056e-06 0.000420965911555675
4.373101634690591e-06 0.00040015032381762484
2.961278587351352e-06 0.00037739081804716345
1.2428729259327719e-06 0.0003780787367474163
2.2312784660776055e-11 0.0006414990078762793
3.222964642648677e-07 0.00035249394365443704
4.20759684517319e-08 0.00039119531303866725
-2.9066745990338846e-16 0.048473971154331524
1.752459835023066e-05 0.0003686052536464657
-2.125944532710131e-05 0.0002676691344430858
5.496581056497653e-09 0.00033400794278926386