# vtk DataFile Version 3.0
Some data
ASCII
DATASET UNSTRUCTURED_GRID
POINTS 7930 float
0.0 0.0 0.0
0.0 10.0 0.0
10.0 10.0 0.0
10.0 0.0 0.0
0.5 0.0 0.0
0.0009999999999981016 0.0 0.0
0.001999999999996203 0.0 0.0
0.002999999999994305 0.0 0.0
0.003999999999992409 0.0 0.0
0.004999999999990531 0.0 0.0
0.005999999999988653 0.0 0.0
0.006999999999986775 0.0 0.0
0.007999999999984898 0.0 0.0
0.008999999999983018 0.0 0.0
0.009999999999981142 0.0 0.0
0.01099999999997926 0.0 0.0
0.01199999999997736 0.0 0.0
0.0129999999999754 0.0 0.0
0.01399999999997343 0.0 0.0
0.01499999999997147 0.0 0.0
0.01599999999996944 0.0 0.0
0.0169999999999673 0.0 0.0
0.01799999999996516 0.0 0.0
0.01899999999996302 0.0 0.0
0.01999999999996084 0.0 0.0
0.02099999999995862 0.0 0.0
0.02199999999995639 0.0 0.0
0.02299999999995417 0.0 0.0
0.02399999999995195 0.0 0.0
0.02499999999994972 0.0 0.0
0.0259999999999475 0.0 0.0
0.02699999999994527 0.0 0.0
0.02799999999994315 0.0 0.0
0.0289999999999411 0.0 0.0
0.02999999999993905 0.0 0.0
0.030999999999937 0.0 0.0
0.03199999999993521 0.0 0.0
0.0329999999999335 0.0 0.0
0.0339999999999318 0.0 0.0
0.03499999999993009 0.0 0.0
0.03599999999992853 0.0 0.0
0.036999999999927 0.0 0.0
0.03799999999992547 0.0 0.0
0.03899999999992394 0.0 0.0
0.03999999999992241 0.0 0.0
0.04099999999992088 0.0 0.0
0.04199999999991934 0.0 0.0
0.04299999999991782 0.0 0.0
0.04399999999991629 0.0 0.0
0.04499999999991475 0.0 0.0
0.04599999999991322 0.0 0.0
0.0469999999999117 0.0 0.0
0.04799999999991016 0.0 0.0
0.04899999999990863 0.0 0.0
0.0499999999999071 0.0 0.0
0.05099999999990557 0.0 0.0
0.05199999999990404 0.0 0.0
0.05299999999990251 0.0 0.0
0.05399999999990097 0.0 0.0
0.05499999999989943 0.0 0.0
0.05599999999989791 0.0 0.0
0.05699999999989638 0.0 0.0
0.05799999999989484 0.0 0.0
0.05899999999989317 0.0 0.0
0.05999999999989129 0.0 0.0
0.06099999999988941 0.0 0.0
0.06199999999988753 0.0 0.0
0.06299999999988531 0.0 0.0
0.06399999999988273 0.0 0.0
0.06499999999988015 0.0 0.0
0.06599999999987759 0.0 0.0
0.0669999999998748 0.0 0.0
0.06799999999987189 0.0 0.0
0.06899999999986897 0.0 0.0
0.06999999999986604 0.0 0.0
0.07099999999986313 0.0 0.0
0.0719999999998602 0.0 0.0
0.07299999999985729 0.0 0.0
0.07399999999985438 0.0 0.0
0.07499999999985145 0.0 0.0
0.07599999999984854 0.0 0.0
0.07699999999984562 0.0 0.0
0.0779999999998427 0.0 0.0
0.07899999999983978 0.0 0.0
0.07999999999983685 0.0 0.0
0.08099999999983394 0.0 0.0
0.08199999999983103 0.0 0.0
0.0829999999998281 0.0 0.0
0.08399999999982519 0.0 0.0
0.08499999999982226 0.0 0.0
0.08599999999981935 0.0 0.0
0.08699999999981643 0.0 0.0
0.0879999999998135 0.0 0.0
0.08899999999981059 0.0 0.0
0.08999999999980766 0.0 0.0
0.09099999999980475 0.0 0.0
0.09199999999980184 0.0 0.0
0.09299999999979891 0.0 0.0
0.093999999999796 0.0 0.0
0.09499999999979307 0.0 0.0
0.09599999999979016 0.0 0.0
0.09699999999978724 0.0 0.0
0.09799999999978432 0.0 0.0
0.0989999999997814 0.0 0.0
0.09999999999977847 0.0 0.0
0.1009999999997756 0.0 0.0
0.1019999999997726 0.0 0.0
0.1029999999997697 0.0 0.0
0.1039999999997668 0.0 0.0
0.1049999999997639 0.0 0.0
0.105999999999761 0.0 0.0
0.106999999999758 0.0 0.0
0.1079999999997551 0.0 0.0
0.1089999999997522 0.0 0.0
0.1099999999997493 0.0 0.0
0.1109999999997464 0.0 0.0
0.1119999999997434 0.0 0.0
0.1129999999997405 0.0 0.0
0.1139999999997376 0.0 0.0
0.1149999999997347 0.0 0.0
0.1159999999997318 0.0 0.0
0.1169999999997288 0.0 0.0
0.1179999999997259 0.0 0.0
0.118999999999723 0.0 0.0
0.1199999999997201 0.0 0.0
0.1209999999997172 0.0 0.0
0.1219999999997143 0.0 0.0
0.1229999999997113 0.0 0.0
0.1239999999997084 0.0 0.0
0.1249999999997055 0.0 0.0
0.1259999999997026 0.0 0.0
0.1269999999996997 0.0 0.0
0.1279999999996967 0.0 0.0
0.1289999999996938 0.0 0.0
0.1299999999996909 0.0 0.0
0.130999999999688 0.0 0.0
0.1319999999996851 0.0 0.0
0.1329999999996822 0.0 0.0
0.1339999999996792 0.0 0.0
0.1349999999996764 0.0 0.0
0.1359999999996734 0.0 0.0
0.1369999999996705 0.0 0.0
0.1379999999996676 0.0 0.0
0.1389999999996647 0.0 0.0
0.1399999999996618 0.0 0.0
0.1409999999996588 0.0 0.0
0.1419999999996559 0.0 0.0
0.142999999999653 0.0 0.0
0.1439999999996501 0.0 0.0
0.1449999999996472 0.0 0.0
0.1459999999996442 0.0 0.0
0.1469999999996414 0.0 0.0
0.1479999999996384 0.0 0.0
0.1489999999996355 0.0 0.0
0.1499999999996326 0.0 0.0
0.1509999999996297 0.0 0.0
0.1519999999996268 0.0 0.0
0.1529999999996239 0.0 0.0
0.1539999999996209 0.0 0.0
0.154999999999618 0.0 0.0
0.1559999999996151 0.0 0.0
0.1569999999996122 0.0 0.0
0.1579999999996093 0.0 0.0
0.1589999999996064 0.0 0.0
0.1599999999996035 0.0 0.0
0.1609999999996005 0.0 0.0
0.1619999999995976 0.0 0.0
0.1629999999995947 0.0 0.0
0.1639999999995918 0.0 0.0
0.1649999999995889 0.0 0.0
0.165999999999586 0.0 0.0
0.1669999999995831 0.0 0.0
0.1679999999995801 0.0 0.0
0.1689999999995772 0.0 0.0
0.1699999999995743 0.0 0.0
0.1709999999995714 0.0 0.0
0.1719999999995685 0.0 0.0
0.1729999999995655 0.0 0.0
0.1739999999995626 0.0 0.0
0.1749999999995597 0.0 0.0
0.1759999999995568 0.0 0.0
0.1769999999995539 0.0 0.0
0.177999999999551 0.0 0.0
0.178999999999548 0.0 0.0
0.1799999999995451 0.0 0.0
0.1809999999995422 0.0 0.0
0.1819999999995393 0.0 0.0
0.1829999999995364 0.0 0.0
0.1839999999995335 0.0 0.0
0.1849999999995305 0.0 0.0
0.1859999999995277 0.0 0.0
0.1869999999995247 0.0 0.0
0.1879999999995218 0.0 0.0
0.1889999999995189 0.0 0.0
0.189999999999516 0.0 0.0
0.1909999999995131 0.0 0.0
0.1919999999995101 0.0 0.0
0.1929999999995072 0.0 0.0
0.1939999999995043 0.0 0.0
0.1949999999995014 0.0 0.0
0.1959999999994985 0.0 0.0
0.1969999999994956 0.0 0.0
0.1979999999994927 0.0 0.0
0.1989999999994897 0.0 0.0
0.1999999999994868 0.0 0.0
0.2009999999994839 0.0 0.0
0.201999999999481 0.0 0.0
0.2029999999994781 0.0 0.0
0.2039999999994752 0.0 0.0
0.2049999999994722 0.0 0.0
0.2059999999994693 0.0 0.0
0.2069999999994664 0.0 0.0
0.2079999999994635 0.0 0.0
0.2089999999994606 0.0 0.0
0.2099999999994577 0.0 0.0
0.2109999999994548 0.0 0.0
0.2119999999994518 0.0 0.0
0.2129999999994489 0.0 0.0
0.213999999999446 0.0 0.0
0.2149999999994431 0.0 0.0
0.2159999999994402 0.0 0.0
0.2169999999994373 0.0 0.0
0.2179999999994343 0.0 0.0
0.2189999999994314 0.0 0.0
0.2199999999994285 0.0 0.0
0.2209999999994256 0.0 0.0
0.2219999999994227 0.0 0.0
0.2229999999994198 0.0 0.0
0.2239999999994168 0.0 0.0
0.2249999999994139 0.0 0.0
0.225999999999411 0.0 0.0
0.2269999999994081 0.0 0.0
0.2279999999994052 0.0 0.0
0.2289999999994023 0.0 0.0
0.2299999999993994 0.0 0.0
0.2309999999993964 0.0 0.0
0.2319999999993935 0.0 0.0
0.2329999999993906 0.0 0.0
0.2339999999993877 0.0 0.0
0.2349999999993848 0.0 0.0
0.2359999999993818 0.0 0.0
0.236999999999379 0.0 0.0
0.237999999999376 0.0 0.0
0.2389999999993731 0.0 0.0
0.2399999999993702 0.0 0.0
0.2409999999993673 0.0 0.0
0.2419999999993644 0.0 0.0
0.2429999999993615 0.0 0.0
0.2439999999993585 0.0 0.0
0.2449999999993556 0.0 0.0
0.2459999999993527 0.0 0.0
0.246999999999351 0.0 0.0
0.2479999999993495 0.0 0.0
0.248999999999348 0.0 0.0
0.2499999999993464 0.0 0.0
0.2509999999993477 0.0 0.0
0.2519999999993489 0.0 0.0
0.2529999999993502 0.0 0.0
0.2539999999993516 0.0 0.0
0.2549999999993542 0.0 0.0
0.2559999999993569 0.0 0.0
0.2569999999993595 0.0 0.0
0.2579999999993621 0.0 0.0
0.2589999999993647 0.0 0.0
0.2599999999993673 0.0 0.0
0.26099999999937 0.0 0.0
0.2619999999993726 0.0 0.0
0.2629999999993753 0.0 0.0
0.2639999999993779 0.0 0.0
0.2649999999993806 0.0 0.0
0.2659999999993832 0.0 0.0
0.2669999999993858 0.0 0.0
0.2679999999993884 0.0 0.0
0.2689999999993911 0.0 0.0
0.2699999999993937 0.0 0.0
0.2709999999993963 0.0 0.0
0.271999999999399 0.0 0.0
0.2729999999994017 0.0 0.0
0.2739999999994043 0.0 0.0
0.2749999999994069 0.0 0.0
0.2759999999994096 0.0 0.0
0.2769999999994122 0.0 0.0
0.2779999999994148 0.0 0.0
0.2789999999994174 0.0 0.0
0.2799999999994201 0.0 0.0
0.2809999999994228 0.0 0.0
0.2819999999994254 0.0 0.0
0.282999999999428 0.0 0.0
0.2839999999994306 0.0 0.0
0.2849999999994333 0.0 0.0
0.2859999999994359 0.0 0.0
0.2869999999994385 0.0 0.0
0.2879999999994411 0.0 0.0
0.2889999999994439 0.0 0.0
0.2899999999994465 0.0 0.0
0.2909999999994491 0.0 0.0
0.2919999999994517 0.0 0.0
0.2929999999994544 0.0 0.0
0.293999999999457 0.0 0.0
0.2949999999994596 0.0 0.0
0.2959999999994622 0.0 0.0
0.2969999999994649 0.0 0.0
0.2979999999994676 0.0 0.0
0.2989999999994702 0.0 0.0
0.2999999999994728 0.0 0.0
0.3009999999994754 0.0 0.0
0.3019999999994781 0.0 0.0
0.3029999999994807 0.0 0.0
0.3039999999994834 0.0 0.0
0.304999999999486 0.0 0.0
0.3059999999994886 0.0 0.0
0.3069999999994913 0.0 0.0
0.3079999999994939 0.0 0.0
0.3089999999994965 0.0 0.0
0.3099999999994992 0.0 0.0
0.3109999999995018 0.0 0.0
0.3119999999995045 0.0 0.0
0.3129999999995071 0.0 0.0
0.3139999999995097 0.0 0.0
0.3149999999995123 0.0 0.0
0.315999999999515 0.0 0.0
0.3169999999995176 0.0 0.0
0.3179999999995203 0.0 0.0
0.3189999999995229 0.0 0.0
0.3199999999995256 0.0 0.0
0.3209999999995282 0.0 0.0
0.3219999999995308 0.0 0.0
0.3229999999995334 0.0 0.0
0.323999999999536 0.0 0.0
0.3249999999995387 0.0 0.0
0.3259999999995414 0.0 0.0
0.326999999999544 0.0 0.0
0.3279999999995466 0.0 0.0
0.3289999999995493 0.0 0.0
0.3299999999995519 0.0 0.0
0.3309999999995545 0.0 0.0
0.3319999999995571 0.0 0.0
0.3329999999995598 0.0 0.0
0.3339999999995625 0.0 0.0
0.3349999999995651 0.0 0.0
0.3359999999995677 0.0 0.0
0.3369999999995703 0.0 0.0
0.337999999999573 0.0 0.0
0.3389999999995756 0.0 0.0
0.3399999999995783 0.0 0.0
0.3409999999995809 0.0 0.0
0.3419999999995835 0.0 0.0
0.3429999999995862 0.0 0.0
0.3439999999995888 0.0 0.0
0.3449999999995914 0.0 0.0
0.345999999999594 0.0 0.0
0.3469999999995967 0.0 0.0
0.3479999999995994 0.0 0.0
0.348999999999602 0.0 0.0
0.3499999999996046 0.0 0.0
0.3509999999996072 0.0 0.0
0.3519999999996099 0.0 0.0
0.3529999999996125 0.0 0.0
0.3539999999996151 0.0 0.0
0.3549999999996178 0.0 0.0
0.3559999999996205 0.0 0.0
0.3569999999996231 0.0 0.0
0.3579999999996257 0.0 0.0
0.3589999999996283 0.0 0.0
0.359999999999631 0.0 0.0
0.3609999999996336 0.0 0.0
0.3619999999996362 0.0 0.0
[...]
POINT_DATA 7930
SCALARS Disp float 2
LOOKUP_TABLE default
0.0 0.0015071449293165438
0.0 0.1
0.0 0.1
0.0 0.0
5.314633168836538e-06 0.0
-6.826034610785151e-06 0.0015070437061960686
-1.3590032029615881e-05 0.0015064481421500793
-2.035391067047696e-05 0.0015058535762699486
-2.7360934225728443e-05 0.001505233875279206
-3.42421964127488e-05 0.001503702608309644
-4.083671753389638e-05 0.001501375546708662
-4.753977127329265e-05 0.0015000856766523845
-5.4746458260964915e-05 0.0014990730571193477
-6.18965294556557e-05 0.0014959156268316183
-6.84258817278089e-05 0.0014915547208144183
-7.474413721200433e-05 0.001488840868754853
-8.199561676304435e-05 0.001487141739650433
-8.944525541651191e-05 0.0014831982972934115
-9.593355753733835e-05 0.0014772959723147704
-0.00010214169624729766 0.0014729447066282877
-0.00010921673989387107 0.0014702094320658424
-0.00011678811258878647 0.0014651434701798284
-0.00012327964293406656 0.001457752590062759
-0.00012916601727630355 0.0014521206359458432
-0.00013633209124486016 0.0014488845188362742
-0.0001441004803081721 0.0014424786109134894
-0.00015070259823831341 0.0014332161061608789
-0.00015655018308933036 0.0014259593695299805
-0.00016349782738407528 0.0014213822726867474
-0.00017137043615969683 0.0014142619292437611
-0.00017798860953779813 0.001403178717448751
-0.00018388351001292043 0.0013943469715399282
-0.00019069982261208995 0.0013885169146879072
-0.0001984180437447195 0.0013803419143669123
-0.00020536067806140005 0.0013681326987514592
-0.0002113785134345337 0.0013572938708329534
-0.0002182309450551746 0.0013499260790562375
-0.00022619336784569823 0.0013401772275777313
-0.00023299321886086462 0.0013256858115340065
-0.0002388315584416328 0.0013128087561054356
-0.0002453794316553921 0.0013038949552961424
-0.0002531013536621166 0.0012929114030133416
-0.0002601634792251418 0.001276854812893411
-0.0002659414255624572 0.001261959997731844
-0.0002726001133887988 0.0012514910277169333
-0.0002806983561735725 0.0012386698204869201
-0.00028763534496622004 0.0012200273611932396
-0.0002933978995289312 0.0012025182638490239
-0.0002996382785977 0.0011897103462116562
-0.00030742790835174184 0.001175301171223187
-0.0003147786425794796 0.001154684980136926
-0.0003202602628619758 0.001134428262899296
-0.000326574284139668 0.001119279222881643
-0.00033461031013879 0.0011024537394988948
-0.0003420161890664364 0.0010791786631664674
-0.000347770878261828 0.001055680068180504
-0.00035392921899344193 0.0010371353469072505
-0.0003620258784148513 0.0010176333337989722
-0.0003698756377390473 0.0009901759452914446
-0.0003753838531842182 0.0009622264859731089
-0.0003810945405112111 0.0009396615327939653
-0.00038887540258852513 0.0009162006029762293
-0.00039692248626048817 0.0008850511827072706
-0.00040286464551706 0.0008519123472333429
-0.0004087914175796872 0.0008234460544360377
-0.0004167197928507759 0.000793627414426624
-0.00042410817440210634 0.0007555306536317717
-0.00043015413738211423 0.0007143641901358145
-0.0004358280757962289 0.0006766842704466431
-0.00044403743645749964 0.0006366149626828651
-0.00045146073731508154 0.0005863572426526132
-0.00045734994419587043 0.0005294121773912384
-0.00046191975784679355 0.0004732007991232358
-0.00046956126466706475 0.00040784488425790337
-0.0004733513647275327 0.0003216994809909852
-0.000468629177740253 0.00020484199576018732
-0.0004437962983168843 0.0
-0.0004048613002949813 0.0
-0.00037767924312962 0.0
-0.0003556611701158599 0.0
-0.00033904744719389154 0.0
-0.00032502783267237455 0.0
-0.0003130305583623892 0.0
-0.00030214083294016156 0.0
-0.00029243084148303076 0.0
-0.0002835532567979239 0.0
-0.00027533724226874446 0.0
-0.00026773703496788567 0.0
-0.00026071926327694763 0.0
-0.0002540967415584692 0.0
-0.0002478220035061868 0.0
-0.00024192367435926378 0.0
-0.00023632969996577606 0.0
-0.00023103031029740256 0.0
-0.0002259669537074259 0.0
-0.00022113274470671887 0.0
-0.00021651350753436763 0.0
-0.0002120827173173097 0.0
-0.00020783314706982603 0.0
-0.0002037683691787537 0.0
-0.0001998580181709429 0.0
-0.00019607177251517854 0.0
-0.00019242711008372396 0.0
-0.00018889550348970456 0.0
-0.00018549778099363363 0.0
-0.00018221085208209914 0.0
-0.00017904187111524822 0.0
-0.00017597822749488673 0.0
-0.00017301445496149397 0.0
-0.0001701416690046569 0.0
-0.00016733411675868166 0.0
-0.00016462098101138487 0.0
-0.0001620098145001459 0.0
-0.0001594218116522688 0.0
-0.0001569227709157507 0.0
-0.00015449203258679402 0.0
-0.00015211240985245594 0.0
-0.00014979421048723444 0.0
-0.00014753293804660412 0.0
-0.00014531788777210334 0.0
-0.0001431568637618354 0.0
-0.00014104993992049603 0.0
-0.0001389930107508402 0.0
-0.00013699598276257683 0.0
-0.0001350133277107096 0.0
-0.00013309345643686702 0.0
-0.00013120929581822966 0.0
-0.00012937327323473807 0.0
-0.00012756490591995655 0.0
-0.0001258000770507415 0.0
-0.00012406993707888753 0.0
-0.0001223736383767191 0.0
-0.000120709507415093 0.0
-0.00011907794836474742 0.0
-0.00011747681037119934 0.0
-0.00011590368797303678 0.0
-0.00011435731659029664 0.0
-0.00011284178559745746 0.0
-0.0001113574303902346 0.0
-0.00010988465505278908 0.0
-0.00010844408984254753 0.0
-0.00010702419232294751 0.0
-0.00010562875226961509 0.0
-0.00010425506135822817 0.0
-0.00010290391698390188 0.0
-0.00010157650218128674 0.0
-0.0001002718129561251 0.0
-9.898918369751791e-05 0.0
-9.77257884924808e-05 0.0
-9.648455193732635e-05 0.0
-9.526469047507691e-05 0.0
-9.406414460585279e-05 0.0
-9.288404111118992e-05 0.0
-9.17226537473648e-05 0.0
-9.057835016160221e-05 0.0
-8.945164220646002e-05 0.0
-8.834199555599685e-05 0.0
-8.724732785260189e-05 0.0
-8.616738401246917e-05 0.0
-8.510355475761318e-05 0.0
-8.405644383936242e-05 0.0
-8.301641124553118e-05 0.0
-8.199626641962514e-05 0.0
-8.098686577980695e-05 0.0
-7.999003963693979e-05 0.0
-7.900804789749841e-05 0.0
-7.803073578331642e-05 0.0
-7.707129830761588e-05 0.0
-7.612287810537144e-05 0.0
-7.518553067891752e-05 0.0
-7.426030118736174e-05 0.0
-7.334643900468032e-05 0.0
-7.244358874260801e-05 0.0
-7.1551481829972e-05 0.0
-7.067077291994307e-05 0.0
-6.980080544023332e-05 0.0
-6.894082725005222e-05 0.0
-6.809281091543647e-05 0.0
-6.725650386610678e-05 0.0
-6.643040705873513e-05 0.0
-6.561462454916095e-05 0.0
-6.480999067129288e-05 0.0
-6.401647500208604e-05 0.0
-6.323197880938843e-05 0.0
-6.245772485310674e-05 0.0
-6.169398150217219e-05 0.0
-6.093950214446966e-05 0.0
-6.019430091602482e-05 0.0
-5.945844512924831e-05 0.0
-5.873237842098878e-05 0.0
-5.8014477003250576e-05 0.0
-5.7305331386650876e-05 0.0
-5.6604644525381554e-05 0.0
-5.591202037656074e-05 0.0
-5.522763205675371e-05 0.0
-5.4551478914889605e-05 0.0
-5.3882254280585496e-05 0.0
-5.322037345510361e-05 0.0
-5.256522477860361e-05 0.0
-5.19169964318794e-05 0.0
-5.127608593617051e-05 0.0
-5.0641185855854224e-05 0.0
-5.001202722270349e-05 0.0
-4.938956569969903e-05 0.0
-4.877235457448649e-05 0.0
-4.81609771829505e-05 0.0
-4.755572713685703e-05 0.0
-4.6956097202288904e-05 0.0
-4.6361674528599316e-05 0.0
-4.577382313723544e-05 0.0
-4.518959825248679e-05 0.0
-4.4610977594312604e-05 0.0
-4.4037922872959576e-05 0.0
-4.3470943102236214e-05 0.0
-4.2909228698572455e-05 0.0
-4.235313759722796e-05 0.0
-4.1802832052149345e-05 0.0
-4.1257833428263294e-05 0.0
-4.071852317699151e-05 0.0
-4.0186447436513205e-05 0.0
-3.965758328789031e-05 0.0
-3.913558068442116e-05 0.0
-3.8619634976755506e-05 0.0
-3.8108833253495e-05 0.0
-3.760369774464269e-05 0.0
-3.7104288651804196e-05 0.0
-3.661023574112759e-05 0.0
-3.612130188238382e-05 0.0
-3.563766762263319e-05 0.0
-3.515913011458124e-05 0.0
-3.4685391874217244e-05 0.0
-3.421664401612553e-05 0.0
-3.3752357124315815e-05 0.0
-3.329241904274208e-05 0.0
-3.283687295321462e-05 0.0
-3.238518239799426e-05 0.0
-3.193713159127899e-05 0.0
-3.149306051418957e-05 0.0
-3.1052739937011965e-05 0.0
-3.061554896678091e-05 0.0
-3.018220484753684e-05 0.0
-2.9752054410573976e-05 0.0
-2.9325439950101013e-05 0.0
-2.8902151391908398e-05 0.0
-2.8482052351644158e-05 0.0
-2.8065132695440302e-05 0.0
-2.7651466831672843e-05 0.0
-2.7241237074204058e-05 0.0
-2.683414118153972e-05 0.0
-2.6430555712200394e-05 0.0
-2.6030863719990925e-05 0.0
-2.5634366774289646e-05 0.0
-2.5241453503072688e-05 0.0
-2.4852591408719867e-05 0.0
-2.44674679000013e-05 0.0
-2.40861766583911e-05 0.0
-2.3708785585870265e-05 0.0
-2.333520798504759e-05 0.0
-2.2965518433651722e-05 0.0
-2.2599954838624503e-05 0.0
-2.2238124790451084e-05 0.0
-2.1880269468346898e-05 0.0
-2.1526282333935718e-05 0.0
-2.1176194969291073e-05 0.0
-2.0829888542184894e-05 0.0
-2.048725514936808e-05 0.0
-2.014808909533721e-05 0.0
-1.9812290577143367e-05 0.0
-1.947989648698243e-05 0.0
-1.915057477689529e-05 0.0
-1.882444281973385e-05 0.0
-1.8501345184084114e-05 0.0
-1.8181070056325454e-05 0.0
-1.786286031527394e-05 0.0
-1.7548075697513418e-05 0.0
-1.7234995211002656e-05 0.0
-1.692504353972002e-05 0.0
-1.6616534600026826e-05 0.0
-1.6310374733201773e-05 0.0
-1.6006335928779787e-05 0.0
-1.570442065568019e-05 0.0
-1.5404541834935233e-05 0.0
-1.510656143667195e-05 0.0
-1.4810600402162084e-05 0.0
-1.4516657370031986e-05 0.0
-1.4224644971600675e-05 0.0
-1.3934548934764574e-05 0.0
-1.3646513120022118e-05 0.0
-1.3360571014913324e-05 0.0
-1.3076610879763515e-05 0.0
-1.27948197934034e-05 0.0
-1.2515345806409278e-05 0.0
-1.223818093862278e-05 0.0
-1.196346626708217e-05 0.0
-1.1690299540742631e-05 0.0
-1.1420117878445228e-05 0.0
-1.11523606800982e-05 0.0
-1.0887210893471961e-05 0.0
-1.062504730326416e-05 0.0
-1.036475933402921e-05 0.0
-1.01072604781979e-05 0.0
-9.852504359096959e-06 0.0
-9.600482000741235e-06 0.0
-9.35102413449369e-06 0.0
-9.104226841700498e-06 0.0
-8.859959956976983e-06 0.0
-8.61838661815925e-06 0.0
-8.379337499406922e-06 0.0
-8.142797398981088e-06 0.0
-7.908769077489992e-06 0.0
-7.677196137887164e-06 0.0
-7.44804958663572e-06 0.0
-7.220511388936738e-06 0.0
-6.995508189390291e-06 0.0
-6.772724682348072e-06 0.0
-6.55209301648561e-06 0.0
-6.333792805942879e-06 0.0
-6.116656197634695e-06 0.0
-5.901477004325352e-06 0.0
-5.688149222836691e-06 0.0
-5.476581762604033e-06 0.0
-5.266704006062473e-06 0.0
-5.058638089020797e-06 0.0
-4.852125595236847e-06 0.0
-4.647118760213009e-06 0.0
-4.443635098926269e-06 0.0
-4.241694346130252e-06 0.0
-4.0412075393355655e-06 0.0
-3.842149437000624e-06 0.0
-3.6446521796141686e-06 0.0
-3.44875595775929e-06 0.0
-3.2542934938204576e-06 0.0
-3.0613196286885064e-06 0.0
-2.8700077073004605e-06 0.0
-2.680316058919186e-06 0.0
-2.4921575269184547e-06 0.0
-2.3057085359519638e-06 0.0
-2.120887558946575e-06 0.0
-1.937863072930238e-06 0.0
-1.7565802590378947e-06 0.0
-1.57705981057422e-06 0.0
-1.3993181765871505e-06 0.0
-1.2234175623395846e-06 0.0
-1.049510870700319e-06 0.0
-8.775494495007012e-07 0.0
-7.07515096613219e-07 0.0
-5.394159277273106e-07 0.0
-3.7334667485704085e-07 0.0
-2.0933169572007575e-07 0.0
-4.740030850110093e-08 0.0
1.1252787091802982e-07 0.0
2.7032037746044403e-07 0.0
4.261122789421741e-07 0.0
5.799983990280625e-07 0.0
7.317072913146331e-07 0.0
8.812584371549323e-07 0.0
1.0289946619146234e-06 0.0
1.1745936200060538e-06 0.0
1.3183017456641486e-06 0.0
1.4600371208077945e-06 0.0
1.5996377929744762e-06 0.0
1.7374691396750235e-06 0.0
1.8733553205507356e-06 0.0
2.0073758114224273e-06 0.0
2.139677177408377e-06 0.0
2.270009647777646e-06 0.0
2.398434359284992e-06 0.0
2.5251232227648516e-06 0.0
2.649964942102006e-06 0.0
2.77303672553117e-06 0.0
2.8943567790085523e-06 0.0
3.013842894256437e-06 0.0
3.1315497524552582e-06 0.0
3.2474156716616774e-06 0.0
3.3618150991842428e-06 0.0
3.4743131161869042e-06 0.0
3.5849541090176846e-06 0.0
3.6937594743732204e-06 0.0
3.8007489032694813e-06 0.0
3.905878533527736e-06 0.0
4.009175052017193e-06 0.0
4.110546377915497e-06 0.0
4.209975500654079e-06 0.0
4.307743128527684e-06 0.0
4.403408192522939e-06 0.0
4.496843624345541e-06 0.0
4.588456800329123e-06 0.0
4.678192274561045e-06 0.0
4.765611456827768e-06 0.0
4.850862970023553e-06 0.0
4.934090783556216e-06 0.0
5.0152314984027205e-06 0.0
5.09415638755067e-06 0.0
5.171048673407255e-06 0.0
5.245573297076527e-06 0.0
5.317679916481769e-06 0.0
5.387760480315213e-06 0.0
5.455591300930499e-06 0.0
5.521160951217598e-06 0.0
5.584693854933087e-06 0.0
5.645748367045747e-06 0.0
5.704536281223234e-06 0.0
5.761180099057734e-06 0.0
5.815492571258512e-06 0.0
5.8675630907370645e-06 0.0
5.917628820584515e-06 0.0
5.965546126839965e-06 0.0
6.011331307031299e-06 0.0
6.055010846953489e-06 0.0
6.096694100791848e-06 0.0
6.136392501413548e-06 0.0
6.17415768694422e-06 0.0
6.210003802620406e-06 0.0
6.244052722296081e-06 0.0
6.276312792913835e-06 0.0
6.306895340854303e-06 0.0
6.335866805863167e-06 0.0
6.36318386121894e-06 0.0
6.388932055035259e-06 0.0
6.413193163696606e-06 0.0
6.435974217437619e-06 0.0
6.457379813330903e-06 0.0
6.477520477021913e-06 0.0
6.496363740318499e-06 0.0
6.514026100024608e-06 0.0
6.530526086415914e-06 0.0
6.545883220038853e-06 0.0
6.560172927579125e-06 0.0
6.573551289061863e-06 0.0
6.585842762876797e-06 0.0
6.59719404177664e-06 0.0
6.607611157165959e-06 0.0
6.617195849149992e-06 0.0
6.625965540386939e-06 0.0
6.633903145257636e-06 0.0
6.641047862324322e-06 0.0
6.647440697968415e-06 0.0
6.65307463307051e-06 0.0
6.657930121162939e-06 0.0
6.662096941003576e-06 0.0
6.6654900785722374e-06 0.0
6.668168818509569e-06 0.0
6.670116122356935e-06 0.0
6.6713374693131534e-06 0.0
6.67190866077616e-06 0.0
6.671685730003734e-06 0.0
6.670705855327778e-06 0.0
6.668960738326262e-06 0.0
6.666477054970092e-06 0.0
6.663233653795763e-06 0.0
6.6592643443190885e-06 0.0
6.654437888587207e-06 0.0
6.64882372477897e-06 0.0
6.642416650363421e-06 0.0
6.635145608358794e-06 0.0
6.627049449997766e-06 0.0
6.618128961447864e-06 0.0
6.608347723755626e-06 0.0
6.597697468948974e-06 0.0
6.586169672291883e-06 0.0
6.5736941395634195e-06 0.0
6.560383745245864e-06 0.0
6.546155943244418e-06 0.0
6.531024054151024e-06 0.0
6.514976542166518e-06 0.0
6.497983386913433e-06 0.0
6.480086701255003e-06 0.0
6.461316547190264e-06 0.0
6.4417015226896905e-06 0.0
6.421161374021521e-06 0.0
6.399666969183918e-06 0.0
6.377298998998227e-06 0.0
6.3541627513349e-06 0.0
6.330173826840742e-06 0.0
6.305389216087749e-06 0.0
6.279800823854259e-06 0.0
6.253445714301354e-06 0.0
6.226320585885505e-06 0.0
6.198459947035104e-06 0.0
6.169930665347907e-06 0.0
6.140688566312995e-06 0.0
6.110794231003069e-06 0.0
6.080265373559546e-06 0.0
6.049169122084373e-06 0.0
6.017528001568012e-06 0.0
5.985367749747879e-06 0.0
5.952702271000429e-06 0.0
5.91954560367829e-06 0.0
5.886008385062216e-06 0.0
5.852058618916922e-06 0.0
5.817736011885956e-06 0.0
5.783083722662304e-06 0.0
5.7480993006679495e-06 0.0
5.7128715859527525e-06 0.0
5.677400359630353e-06 0.0
5.641703824860325e-06 0.0
5.605810987535473e-06 0.0
5.5697690192149354e-06 0.0
5.533576264713159e-06 0.0
5.4972639179213975e-06 0.0
5.460848229851585e-06 0.0
5.4243607407192246e-06 0.0
5.387827698577318e-06 0.0
5.351242315516748e-06 0.0
5.276693445978546e-06 0.0
5.23544916900729e-06 0.0
5.190637258502637e-06 0.0
5.141966594076236e-06 0.0
5.089128203212986e-06 0.0
5.031790174158668e-06 0.0
4.969584126843935e-06 0.0
4.902104969017803e-06 0.0
4.828905395927268e-06 0.0
4.749464358027004e-06 0.0
4.6631778843616826e-06 0.0
4.569334472690293e-06 0.0
4.467026354316874e-06 0.0
4.355223052059853e-06 0.0
4.232558963844469e-06 0.0
4.0973184729708885e-06 0.0
3.947489248434781e-06 0.0
3.780963077181785e-06 0.0
3.594699191746308e-06 0.0
3.386581659557704e-06 0.0
3.1541230866368495e-06 0.0
2.895766038216923e-06 0.0
2.61184610443541e-06 0.0
2.304114128216518e-06 0.0
1.978603278152249e-06 0.0
1.6431118778246082e-06 0.0
1.3115638922992808e-06 0.0
9.991128015515788e-07 0.0
7.197057995460672e-07 0.0
4.858595876184877e-07 0.0
3.0400756674528517e-07 0.0
1.7395867851341954e-07 0.0
8.882756493601561e-08 0.0
4.064737060010589e-08 0.0
1.604454335733664e-08 0.0
5.286547511374111e-09 0.0
1.3795077490494769e-09 0.0
2.8822107740056116e-10 0.0
5.2332593728811137e-11 0.0
6.858772457621994e-12 0.0
4.538132366494391e-13 0.0
1.6333140033574347e-14 0.0
1.4137418572131442e-15 0.0
-8.070375723246805e-17 0.0
2.0045869276067188e-16 0.0
-3.363478708698006e-19 0.0
-5.082047211410667e-18 0.0
1.936774010599514e-17 0.0
-1.409344328078231e-17 0.0
-8.400755990233295e-17 0.0
-3.138360659230138e-17 0.0
2.6147274591213642e-17 0.0
-3.1592674778322565e-17 0.0
1.9422719628998904e-17 0.0
4.829632670890027e-17 0.0
4.684171050307082e-17 0.0
9.574348067171835e-18 0.0
-1.2577307719771418e-16 0.0
-9.30066265808966e-17 0.0
1.0687778695322886e-16 0.0
4.863585558717469e-16 0.0
3.8347893606506227e-16 0.0
-2.0364687266141057e-18 0.0
-6.791434695211496e-18 0.0
-3.536973274802083e-16 0.0
-1.124472815089966e-16 0.0
6.585694151502031e-17 0.0
6.325219121237885e-17 0.0
-7.399222432543851e-17 0.0
1.29607407006887e-16 0.0
2.5803411052011185e-17 0.0
5.756728642597697e-16 0.0
-8.916361085596766e-16 0.0
-2.415430242678408e-18 0.0
1.3517476988549772e-15 0.0
-5.516289062001562e-16 0.0
-4.3322850811411743e-16 0.0
4.1882815788651283e-16 0.0
-6.466140453438018e-16 0.0
0.0 0.009234165287260137
0.0 0.0221097859304572
0.0 0.04006285207148319
0.0 0.06509563926315785
-8.373924948531669e-16 0.1
-1.315618408924141e-15 0.1
1.5238558666632245e-14 0.1
-1.677962556460076e-14 0.1
0.0 0.09234095951661543
0.0 0.08526779443703048
0.0 0.0787356878349807
0.0 0.07270325358166527
0.0 0.06713226878994458
0.0 0.06198743331092806
0.0 0.05723615233795904
0.0 0.05284831692952308
0.0 0.04879612844994875
0.0 0.045053910657843574
0.0 0.04159795282711732
0.0 0.03840635724257306
0.0 0.03545890171822536
0.0 0.032736910873329916
0.0 0.030223137736033332
0.0 0.027901654838206433
0.0 0.02575775300196271
0.0 0.02377784835211729
0.0 0.021949395807804133
0.0 0.02026081025589517
0.0 0.018701392223655855
0.0 0.01726126159503586
0.0 0.0159312933366814
0.0 0.014703060373009433
0.0 0.013568780782837998
0.0 0.01252126748424159
0.0 0.011553883404362385
0.0 0.010660499203265308
0.0 0.009835453826366927
0.0 0.009073520602183789
0.0 0.008369869350015092
0.0 0.007720078894816965
0.0 0.007119797889809736
0.0 0.006565832555948777
0.0 0.006058259614247098
0.0 0.005592736357548516
0.0 0.005165790862147208
0.0 0.00477455196687534
0.0 0.004416994092198655
0.0 0.00409014534396938
0.0 0.003793191357950024
0.0 0.0035230338391045095
0.0 0.003277899308363209
0.0 0.0030555898547099925
0.0 0.002855123393929573
0.0 0.0026741040156345965
0.0 0.0025114675917726837
0.0 0.0023663316351111435
0.0 0.00223680143726924
0.0 0.002122167893342966
0.0 0.0020222775173916628
0.0 0.0019349417715847522
0.0 0.0018594147463795022
0.0 0.001795084192447884
0.0 0.0017402670203046093
0.0 0.0016948113158198528
0.0 0.001657563762795996
0.0 0.0016279026748430292
0.0 0.0016043966704832725
0.0 0.001586276331500482
0.0 0.0015724590643222281
0.0 0.001562296353931359
0.0 0.0015553507046361797
0.0 0.0015499342979642004
0.0 0.001546901952046162
0.0 0.0015439508731689686
0.0 0.0015420738205155938
0.0 0.0015406434499409879
0.0 0.0015393315031089442
0.0 0.0015380376644143197
0.0 0.001536453944626509
0.0 0.0015348134432942682
0.0 0.0015329629956064236
0.0 0.0015309791695436704
0.0 0.0015287709962141214
0.0 0.0015265060560972557
0.0 0.0015241252154432892
0.0 0.0015216911284445184
0.0 0.0015192427117728471
0.0 0.0015167157568931854
0.0 0.0015142225762192231
0.0 0.0015117635864841544
0.0 0.0015094362704825212
-4.5060709528465026e-08 0.004927215554371973
3.704000023237803e-05 0.0027911817322578392
7.975185319062812e-05 0.0016475118360444357
0.00011556277401082753 0.0012105599658970424
2.5073286070686798e-05 0.0014031396690846844
4.809432188902058e-06 0.0022613137909950564
0.00011426131667963679 0.0012127026587078972
1.0831154059202329e-05 0.0012861810112605133
1.7643731675093353e-05 0.0008286303302853681
1.4571918458453903e-06 0.0007711626841808195
3.92732487907957e-06 0.0007041183500170125
7.997455110168403e-06 0.0006730429407680358
-4.465897349580165e-16 0.014973736461407695
7.519820052053078e-06 0.0006652609341964969
2.9247412458052294e-05 0.0006349889743656634
-3.171532868038775e-05 0.0004823016842198606
2.9830370491007564e-06 0.0011708372931630018