# vtk DataFile Version 3.0
Some data
ASCII
DATASET UNSTRUCTURED_GRID
POINTS 7930 float
0.0 0.0 0.0
0.0 10.0 0.0
10.0 10.0 0.0
10.0 0.0 0.0
0.5 0.0 0.0
0.0009999999999981016 0.0 0.0
0.001999999999996203 0.0 0.0
0.002999999999994305 0.0 0.0
0.003999999999992409 0.0 0.0
0.004999999999990531 0.0 0.0
0.005999999999988653 0.0 0.0
0.006999999999986775 0.0 0.0
0.007999999999984898 0.0 0.0
0.008999999999983018 0.0 0.0
0.009999999999981142 0.0 0.0
0.01099999999997926 0.0 0.0
0.01199999999997736 0.0 0.0
0.0129999999999754 0.0 0.0
0.01399999999997343 0.0 0.0
0.01499999999997147 0.0 0.0
0.01599999999996944 0.0 0.0
0.0169999999999673 0.0 0.0
0.01799999999996516 0.0 0.0
0.01899999999996302 0.0 0.0
0.01999999999996084 0.0 0.0
0.02099999999995862 0.0 0.0
0.02199999999995639 0.0 0.0
0.02299999999995417 0.0 0.0
0.02399999999995195 0.0 0.0
0.02499999999994972 0.0 0.0
0.0259999999999475 0.0 0.0
0.02699999999994527 0.0 0.0
0.02799999999994315 0.0 0.0
0.0289999999999411 0.0 0.0
0.02999999999993905 0.0 0.0
0.030999999999937 0.0 0.0
0.03199999999993521 0.0 0.0
0.0329999999999335 0.0 0.0
0.0339999999999318 0.0 0.0
0.03499999999993009 0.0 0.0
0.03599999999992853 0.0 0.0
0.036999999999927 0.0 0.0
0.03799999999992547 0.0 0.0
0.03899999999992394 0.0 0.0
0.03999999999992241 0.0 0.0
0.04099999999992088 0.0 0.0
0.04199999999991934 0.0 0.0
0.04299999999991782 0.0 0.0
0.04399999999991629 0.0 0.0
0.04499999999991475 0.0 0.0
0.04599999999991322 0.0 0.0
0.0469999999999117 0.0 0.0
0.04799999999991016 0.0 0.0
0.04899999999990863 0.0 0.0
0.0499999999999071 0.0 0.0
0.05099999999990557 0.0 0.0
0.05199999999990404 0.0 0.0
0.05299999999990251 0.0 0.0
0.05399999999990097 0.0 0.0
0.05499999999989943 0.0 0.0
0.05599999999989791 0.0 0.0
0.05699999999989638 0.0 0.0
0.05799999999989484 0.0 0.0
0.05899999999989317 0.0 0.0
0.05999999999989129 0.0 0.0
0.06099999999988941 0.0 0.0
0.06199999999988753 0.0 0.0
0.06299999999988531 0.0 0.0
0.06399999999988273 0.0 0.0
0.06499999999988015 0.0 0.0
0.06599999999987759 0.0 0.0
0.0669999999998748 0.0 0.0
0.06799999999987189 0.0 0.0
0.06899999999986897 0.0 0.0
0.06999999999986604 0.0 0.0
0.07099999999986313 0.0 0.0
0.0719999999998602 0.0 0.0
0.07299999999985729 0.0 0.0
0.07399999999985438 0.0 0.0
0.07499999999985145 0.0 0.0
0.07599999999984854 0.0 0.0
0.07699999999984562 0.0 0.0
0.0779999999998427 0.0 0.0
0.07899999999983978 0.0 0.0
0.07999999999983685 0.0 0.0
0.08099999999983394 0.0 0.0
0.08199999999983103 0.0 0.0
0.0829999999998281 0.0 0.0
0.08399999999982519 0.0 0.0
0.08499999999982226 0.0 0.0
0.08599999999981935 0.0 0.0
0.08699999999981643 0.0 0.0
0.0879999999998135 0.0 0.0
0.08899999999981059 0.0 0.0
0.08999999999980766 0.0 0.0
0.09099999999980475 0.0 0.0
0.09199999999980184 0.0 0.0
0.09299999999979891 0.0 0.0
0.093999999999796 0.0 0.0
0.09499999999979307 0.0 0.0
0.09599999999979016 0.0 0.0
0.09699999999978724 0.0 0.0
0.09799999999978432 0.0 0.0
0.0989999999997814 0.0 0.0
0.09999999999977847 0.0 0.0
0.1009999999997756 0.0 0.0
0.1019999999997726 0.0 0.0
0.1029999999997697 0.0 0.0
0.1039999999997668 0.0 0.0
0.1049999999997639 0.0 0.0
0.105999999999761 0.0 0.0
0.106999999999758 0.0 0.0
0.1079999999997551 0.0 0.0
0.1089999999997522 0.0 0.0
0.1099999999997493 0.0 0.0
0.1109999999997464 0.0 0.0
0.1119999999997434 0.0 0.0
0.1129999999997405 0.0 0.0
0.1139999999997376 0.0 0.0
0.1149999999997347 0.0 0.0
0.1159999999997318 0.0 0.0
0.1169999999997288 0.0 0.0
0.1179999999997259 0.0 0.0
0.118999999999723 0.0 0.0
0.1199999999997201 0.0 0.0
0.1209999999997172 0.0 0.0
0.1219999999997143 0.0 0.0
0.1229999999997113 0.0 0.0
0.1239999999997084 0.0 0.0
0.1249999999997055 0.0 0.0
0.1259999999997026 0.0 0.0
0.1269999999996997 0.0 0.0
0.1279999999996967 0.0 0.0
0.1289999999996938 0.0 0.0
0.1299999999996909 0.0 0.0
0.130999999999688 0.0 0.0
0.1319999999996851 0.0 0.0
0.1329999999996822 0.0 0.0
0.1339999999996792 0.0 0.0
0.1349999999996764 0.0 0.0
0.1359999999996734 0.0 0.0
0.1369999999996705 0.0 0.0
0.1379999999996676 0.0 0.0
0.1389999999996647 0.0 0.0
0.1399999999996618 0.0 0.0
0.1409999999996588 0.0 0.0
0.1419999999996559 0.0 0.0
0.142999999999653 0.0 0.0
0.1439999999996501 0.0 0.0
0.1449999999996472 0.0 0.0
0.1459999999996442 0.0 0.0
0.1469999999996414 0.0 0.0
0.1479999999996384 0.0 0.0
0.1489999999996355 0.0 0.0
0.1499999999996326 0.0 0.0
0.1509999999996297 0.0 0.0
0.1519999999996268 0.0 0.0
0.1529999999996239 0.0 0.0
0.1539999999996209 0.0 0.0
0.154999999999618 0.0 0.0
0.1559999999996151 0.0 0.0
0.1569999999996122 0.0 0.0
0.1579999999996093 0.0 0.0
0.1589999999996064 0.0 0.0
0.1599999999996035 0.0 0.0
0.1609999999996005 0.0 0.0
0.1619999999995976 0.0 0.0
0.1629999999995947 0.0 0.0
0.1639999999995918 0.0 0.0
0.1649999999995889 0.0 0.0
0.165999999999586 0.0 0.0
0.1669999999995831 0.0 0.0
0.1679999999995801 0.0 0.0
0.1689999999995772 0.0 0.0
0.1699999999995743 0.0 0.0
0.1709999999995714 0.0 0.0
0.1719999999995685 0.0 0.0
0.1729999999995655 0.0 0.0
0.1739999999995626 0.0 0.0
0.1749999999995597 0.0 0.0
0.1759999999995568 0.0 0.0
0.1769999999995539 0.0 0.0
0.177999999999551 0.0 0.0
0.178999999999548 0.0 0.0
0.1799999999995451 0.0 0.0
0.1809999999995422 0.0 0.0
0.1819999999995393 0.0 0.0
0.1829999999995364 0.0 0.0
0.1839999999995335 0.0 0.0
0.1849999999995305 0.0 0.0
0.1859999999995277 0.0 0.0
0.1869999999995247 0.0 0.0
0.1879999999995218 0.0 0.0
0.1889999999995189 0.0 0.0
0.189999999999516 0.0 0.0
0.1909999999995131 0.0 0.0
0.1919999999995101 0.0 0.0
0.1929999999995072 0.0 0.0
0.1939999999995043 0.0 0.0
0.1949999999995014 0.0 0.0
0.1959999999994985 0.0 0.0
0.1969999999994956 0.0 0.0
0.1979999999994927 0.0 0.0
0.1989999999994897 0.0 0.0
0.1999999999994868 0.0 0.0
0.2009999999994839 0.0 0.0
0.201999999999481 0.0 0.0
0.2029999999994781 0.0 0.0
0.2039999999994752 0.0 0.0
0.2049999999994722 0.0 0.0
0.2059999999994693 0.0 0.0
0.2069999999994664 0.0 0.0
0.2079999999994635 0.0 0.0
0.2089999999994606 0.0 0.0
0.2099999999994577 0.0 0.0
0.2109999999994548 0.0 0.0
0.2119999999994518 0.0 0.0
0.2129999999994489 0.0 0.0
0.213999999999446 0.0 0.0
0.2149999999994431 0.0 0.0
0.2159999999994402 0.0 0.0
0.2169999999994373 0.0 0.0
0.2179999999994343 0.0 0.0
0.2189999999994314 0.0 0.0
0.2199999999994285 0.0 0.0
0.2209999999994256 0.0 0.0
0.2219999999994227 0.0 0.0
0.2229999999994198 0.0 0.0
0.2239999999994168 0.0 0.0
0.2249999999994139 0.0 0.0
0.225999999999411 0.0 0.0
0.2269999999994081 0.0 0.0
0.2279999999994052 0.0 0.0
0.2289999999994023 0.0 0.0
0.2299999999993994 0.0 0.0
0.2309999999993964 0.0 0.0
0.2319999999993935 0.0 0.0
0.2329999999993906 0.0 0.0
0.2339999999993877 0.0 0.0
0.2349999999993848 0.0 0.0
0.2359999999993818 0.0 0.0
0.236999999999379 0.0 0.0
0.237999999999376 0.0 0.0
0.2389999999993731 0.0 0.0
0.2399999999993702 0.0 0.0
0.2409999999993673 0.0 0.0
0.2419999999993644 0.0 0.0
0.2429999999993615 0.0 0.0
0.2439999999993585 0.0 0.0
0.2449999999993556 0.0 0.0
0.2459999999993527 0.0 0.0
0.246999999999351 0.0 0.0
0.2479999999993495 0.0 0.0
0.248999999999348 0.0 0.0
0.2499999999993464 0.0 0.0
0.2509999999993477 0.0 0.0
0.2519999999993489 0.0 0.0
0.2529999999993502 0.0 0.0
0.2539999999993516 0.0 0.0
0.2549999999993542 0.0 0.0
0.2559999999993569 0.0 0.0
0.2569999999993595 0.0 0.0
0.2579999999993621 0.0 0.0
0.2589999999993647 0.0 0.0
0.2599999999993673 0.0 0.0
0.26099999999937 0.0 0.0
0.2619999999993726 0.0 0.0
0.2629999999993753 0.0 0.0
0.2639999999993779 0.0 0.0
0.2649999999993806 0.0 0.0
0.2659999999993832 0.0 0.0
0.2669999999993858 0.0 0.0
0.2679999999993884 0.0 0.0
0.2689999999993911 0.0 0.0
0.2699999999993937 0.0 0.0
0.2709999999993963 0.0 0.0
0.271999999999399 0.0 0.0
0.2729999999994017 0.0 0.0
0.2739999999994043 0.0 0.0
0.2749999999994069 0.0 0.0
0.2759999999994096 0.0 0.0
0.2769999999994122 0.0 0.0
0.2779999999994148 0.0 0.0
0.2789999999994174 0.0 0.0
0.2799999999994201 0.0 0.0
0.2809999999994228 0.0 0.0
0.2819999999994254 0.0 0.0
0.282999999999428 0.0 0.0
0.2839999999994306 0.0 0.0
0.2849999999994333 0.0 0.0
0.2859999999994359 0.0 0.0
0.2869999999994385 0.0 0.0
0.2879999999994411 0.0 0.0
0.2889999999994439 0.0 0.0
0.2899999999994465 0.0 0.0
0.2909999999994491 0.0 0.0
0.2919999999994517 0.0 0.0
0.2929999999994544 0.0 0.0
0.293999999999457 0.0 0.0
0.2949999999994596 0.0 0.0
0.2959999999994622 0.0 0.0
0.2969999999994649 0.0 0.0
0.2979999999994676 0.0 0.0
0.2989999999994702 0.0 0.0
0.2999999999994728 0.0 0.0
0.3009999999994754 0.0 0.0
0.3019999999994781 0.0 0.0
0.3029999999994807 0.0 0.0
0.3039999999994834 0.0 0.0
0.304999999999486 0.0 0.0
0.3059999999994886 0.0 0.0
0.3069999999994913 0.0 0.0
0.3079999999994939 0.0 0.0
0.3089999999994965 0.0 0.0
0.3099999999994992 0.0 0.0
0.3109999999995018 0.0 0.0
0.3119999999995045 0.0 0.0
0.3129999999995071 0.0 0.0
0.3139999999995097 0.0 0.0
0.3149999999995123 0.0 0.0
0.315999999999515 0.0 0.0
0.3169999999995176 0.0 0.0
0.3179999999995203 0.0 0.0
0.3189999999995229 0.0 0.0
0.3199999999995256 0.0 0.0
0.3209999999995282 0.0 0.0
0.3219999999995308 0.0 0.0
0.3229999999995334 0.0 0.0
0.323999999999536 0.0 0.0
0.3249999999995387 0.0 0.0
0.3259999999995414 0.0 0.0
0.326999999999544 0.0 0.0
0.3279999999995466 0.0 0.0
0.3289999999995493 0.0 0.0
0.3299999999995519 0.0 0.0
0.3309999999995545 0.0 0.0
0.3319999999995571 0.0 0.0
0.3329999999995598 0.0 0.0
0.3339999999995625 0.0 0.0
0.3349999999995651 0.0 0.0
0.3359999999995677 0.0 0.0
0.3369999999995703 0.0 0.0
0.337999999999573 0.0 0.0
0.3389999999995756 0.0 0.0
0.3399999999995783 0.0 0.0
0.3409999999995809 0.0 0.0
0.3419999999995835 0.0 0.0
0.3429999999995862 0.0 0.0
0.3439999999995888 0.0 0.0
0.3449999999995914 0.0 0.0
0.345999999999594 0.0 0.0
0.3469999999995967 0.0 0.0
0.3479999999995994 0.0 0.0
0.348999999999602 0.0 0.0
0.3499999999996046 0.0 0.0
0.3509999999996072 0.0 0.0
0.3519999999996099 0.0 0.0
0.3529999999996125 0.0 0.0
0.3539999999996151 0.0 0.0
0.3549999999996178 0.0 0.0
0.3559999999996205 0.0 0.0
0.3569999999996231 0.0 0.0
0.3579999999996257 0.0 0.0
0.3589999999996283 0.0 0.0
0.359999999999631 0.0 0.0
0.3609999999996336 0.0 0.0
0.3619999999996362 0.0 0.0
[...]
POINT_DATA 7930
SCALARS Disp float 2
LOOKUP_TABLE default
0.0 0.0008129178903039078
0.0 0.1
0.0 0.1
0.0 0.0
7.46533435829145e-12 0.0
-6.834298751027446e-06 0.0008125535854994311
-1.3613822016611724e-05 0.00081175143132496
-2.0506174204572557e-05 0.0008109255376013878
-2.768965453701048e-05 0.0008089611527277115
-3.437929931279089e-05 0.0008054415097627732
-4.080776942615374e-05 0.0008021303440828145
-4.770947590986089e-05 0.0007999868645878403
-5.50002522894162e-05 0.0007963356819817042
-6.192042494328027e-05 0.0007899796980495846
-6.820574473958317e-05 0.0007836226866712833
-7.474364195408294e-05 0.0007793127386202179
-8.225509586084162e-05 0.0007736726734973437
-8.91086669567098e-05 0.0007648854140758048
-9.524379459552552e-05 0.0007560930630536671
-0.00010195433862287516 0.0007494413735470479
-0.00010930120033277339 0.0007415312781347075
-0.00011663505741431081 0.000729779562572576
-0.00012266050548496698 0.0007175652888979397
-0.00012901254659485344 0.0007078182083453534
-0.00013651513711809908 0.0006975891322166394
-0.00014389527541936194 0.0006821057535467757
-0.00014980260822086263 0.0006661954232709853
-0.0001559042336661606 0.000653409664599153
-0.00016345327857365935 0.0006396724593029892
-0.00017095848218552713 0.0006206481519489307
-0.00017714656588287787 0.0005998706788681835
-0.00018334089021475815 0.0005821760855541931
-0.00019110428318021847 0.0005631491909544133
-0.0001984909948018155 0.0005381583337741003
-0.0002048200694531055 0.0005105988770851445
-0.00021072116647067118 0.00048538922055820676
-0.00021834692572316854 0.00045837277295736296
-0.00022593932460107053 0.00042378252914391
-0.00023154506894259224 0.0003843038831471763
-0.00023684304528588784 0.0003449712827505557
-0.00024469420072170315 0.0002991546060031173
-0.00024988612375635667 0.00023779108913930426
-0.00024973087185053966 0.00015227107903554958
-0.00023191306045196672 0.0
-0.00020297120759176662 0.0
-0.00018444499282091494 0.0
-0.00017161563691038244 0.0
-0.00016056835903277227 0.0
-0.00015112708515328314 0.0
-0.00014338481531816079 0.0
-0.00013655076147673495 0.0
-0.00013056825707759748 0.0
-0.00012513478533174026 0.0
-0.00012014844874548726 0.0
-0.00011553824494243608 0.0
-0.00011128025709415772 0.0
-0.00010735440092318909 0.0
-0.00010369609283265272 0.0
-0.00010012880942678824 0.0
-9.686183159195432e-05 0.0
-9.37995271675053e-05 0.0
-9.091428416729219e-05 0.0
-8.817342945100079e-05 0.0
-8.558681011823168e-05 0.0
-8.31299005369986e-05 0.0
-8.077886428944794e-05 0.0
-7.85423287091304e-05 0.0
-7.640677732774757e-05 0.0
-7.435722440155777e-05 0.0
-7.23972082629459e-05 0.0
-7.052048228553046e-05 0.0
-6.871146994295362e-05 0.0
-6.696769401880296e-05 0.0
-6.529089271577304e-05 0.0
-6.36760853091168e-05 0.0
-6.211081103510279e-05 0.0
-6.059787986556869e-05 0.0
-5.913355638950967e-05 0.0
-5.770943766382283e-05 0.0
-5.63313819019535e-05 0.0
-5.499743985492099e-05 0.0
-5.3704037275718915e-05 0.0
-5.245016176131616e-05 0.0
-5.1229441894864315e-05 0.0
-5.004590357321877e-05 0.0
-4.8897216213086534e-05 0.0
-4.777933422978816e-05 0.0
-4.6691857841223665e-05 0.0
-4.563688618333514e-05 0.0
-4.460636561408913e-05 0.0
-4.360079390247514e-05 0.0
-4.2622125577329845e-05 0.0
-4.166760053947904e-05 0.0
-4.0737032506267893e-05 0.0
-3.982616128945442e-05 0.0
-3.893584848437689e-05 0.0
-3.8064872430081804e-05 0.0
-3.72114691442881e-05 0.0
-3.6375839576323404e-05 0.0
-3.555873302915265e-05 0.0
-3.475800755154125e-05 0.0
-3.397142145386903e-05 0.0
-3.3200764234457064e-05 0.0
-3.244382176301592e-05 0.0
-3.170322426573637e-05 0.0
-3.097714159347855e-05 0.0
-3.0266999788597277e-05 0.0
-2.9572033242446912e-05 0.0
-2.8892190179331654e-05 0.0
-2.8227206356908492e-05 0.0
-2.757387227521985e-05 0.0
-2.6936794004457822e-05 0.0
-2.6316821920870913e-05 0.0
-2.570404977913356e-05 0.0
-2.5107289434586428e-05 0.0
-2.4523968312819547e-05 0.0
-2.39516872148259e-05 0.0
-2.339166876957708e-05 0.0
-2.2843212485652403e-05 0.0
-2.2304777409833396e-05 0.0
-2.177702527019364e-05 0.0
-2.12597426067485e-05 0.0
-2.0752041344602957e-05 0.0
-2.0255332952295022e-05 0.0
-1.9762333189896512e-05 0.0
-1.9279939000741975e-05 0.0
-1.880416278010233e-05 0.0
-1.8336867250784443e-05 0.0
-1.7874620822058467e-05 0.0
-1.7419846978905035e-05 0.0
-1.6971336350785505e-05 0.0
-1.6529086746667687e-05 0.0
-1.6092758667089127e-05 0.0
-1.5662641740839756e-05 0.0
-1.5238494910066593e-05 0.0
-1.4820279396017798e-05 0.0
-1.4407932456704696e-05 0.0
-1.400230999630922e-05 0.0
-1.3603718023485822e-05 0.0
-1.320898391766204e-05 0.0
-1.2821498551632506e-05 0.0
-1.2440051712330965e-05 0.0
-1.2065054024078868e-05 0.0
-1.1696211093774924e-05 0.0
-1.1333798828443187e-05 0.0
-1.0978134141047122e-05 0.0
-1.0629061220462347e-05 0.0
-1.0286602302117228e-05 0.0
-9.950254027871195e-06 0.0
-9.620519909276263e-06 0.0
-9.297533128786093e-06 0.0
-8.980811149487933e-06 0.0
-8.670164032459661e-06 0.0
-8.365486278212481e-06 0.0
-8.066789618372055e-06 0.0
-7.773809210875745e-06 0.0
-7.4865182927822376e-06 0.0
-7.204380997048343e-06 0.0
-6.927154847724039e-06 0.0
-6.655163895095682e-06 0.0
-6.38816533265312e-06 0.0
-6.125150817417756e-06 0.0
-5.866828405983551e-06 0.0
-5.612494801891689e-06 0.0
-5.3621276088821264e-06 0.0
-5.115769730428e-06 0.0
-4.87193208707915e-06 0.0
-4.631987672697605e-06 0.0
-4.39531382404215e-06 0.0
-4.161699458938537e-06 0.0
-3.931060847822791e-06 0.0
-3.7032667627750844e-06 0.0
-3.478104937134123e-06 0.0
-3.2555508062353713e-06 0.0
-3.0357048301605716e-06 0.0
-2.8183728727669975e-06 0.0
-2.60360639057655e-06 0.0
-2.391631345057011e-06 0.0
-2.182406276871897e-06 0.0
-1.9758834485942865e-06 0.0
-1.7722064321813497e-06 0.0
-1.571550450321316e-06 0.0
-1.3738507660646464e-06 0.0
-1.179088530568026e-06 0.0
-9.876525407288442e-07 0.0
-7.994771602893364e-07 0.0
-6.147259666396927e-07 0.0
-4.336531361234692e-07 0.0
-2.56072649218457e-07 0.0
-8.218267963102548e-08 0.0
8.773200295168114e-08 0.0
2.5370250806948015e-07 0.0
4.154392096100221e-07 0.0
5.727855181599502e-07 0.0
7.260376331590264e-07 0.0
8.748532652438321e-07 0.0
1.0191703264443887e-06 0.0
1.1589899257298409e-06 0.0
1.2942720012953661e-06 0.0
1.424552183780792e-06 0.0
1.5502083177166797e-06 0.0
1.6714346199999795e-06 0.0
1.7876986884986758e-06 0.0
1.8994966853666921e-06 0.0
2.0064830588214178e-06 0.0
2.108935890824059e-06 0.0
2.207048691346544e-06 0.0
2.300269825744458e-06 0.0
2.3888665519461557e-06 0.0
2.4731099618138243e-06 0.0
2.5532463957516463e-06 0.0
2.6290716218485163e-06 0.0
2.7009078006300263e-06 0.0
2.768761692320962e-06 0.0
2.832632807654185e-06 0.0
2.8925909237727887e-06 0.0
2.949079054722129e-06 0.0
3.0020609916701166e-06 0.0
3.051448699886278e-06 0.0
3.0977283656055247e-06 0.0
3.14091499923171e-06 0.0
3.181124889704499e-06 0.0
3.218371235977433e-06 0.0
3.252790020336391e-06 0.0
3.284672244034738e-06 0.0
3.3139253107357327e-06 0.0
3.340808663072073e-06 0.0
3.3654865142511412e-06 0.0
3.3879801609146084e-06 0.0
3.4083846290330727e-06 0.0
3.4266726925789222e-06 0.0
3.443094341777083e-06 0.0
3.4577009482827277e-06 0.0
3.4705714969796493e-06 0.0
3.4819287677603107e-06 0.0
3.4915609295451455e-06 0.0
3.499604294535012e-06 0.0
3.5062453497854004e-06 0.0
3.5113743012299803e-06 0.0
3.515067054804969e-06 0.0
3.5174692700955016e-06 0.0
3.5185620545808053e-06 0.0
3.518270254845298e-06 0.0
3.5167081817166268e-06 0.0
3.513938208519149e-06 0.0
3.509876269569208e-06 0.0
3.504566122598998e-06 0.0
3.498155887019342e-06 0.0
3.49049468472188e-06 0.0
3.4815836750766772e-06 0.0
3.471526287548507e-06 0.0
3.4601901856866996e-06 0.0
3.447691630504617e-06 0.0
3.433975057063292e-06 0.0
3.4190267714353563e-06 0.0
3.4029273615751783e-06 0.0
3.38561467183344e-06 0.0
3.3670405514361728e-06 0.0
3.3473479270895877e-06 0.0
3.3264675083760184e-06 0.0
3.3044112572784216e-06 0.0
3.2811373191631235e-06 0.0
3.2566735788852208e-06 0.0
3.2310353036260907e-06 0.0
3.204255379656087e-06 0.0
3.176333040124386e-06 0.0
3.1472967558237113e-06 0.0
3.117134581095063e-06 0.0
3.085898867328071e-06 0.0
3.053632126026596e-06 0.0
3.0203218898210208e-06 0.0
2.9859970203741303e-06 0.0
2.9507171835426014e-06 0.0
2.9143952699722203e-06 0.0
2.87736541663634e-06 0.0
2.8393593433468556e-06 0.0
2.800527195455123e-06 0.0
2.760903696476959e-06 0.0
2.7205204898965155e-06 0.0
2.6794394404937237e-06 0.0
2.6376749460422167e-06 0.0
2.5952901254761617e-06 0.0
2.5523429399141964e-06 0.0
2.508862307661108e-06 0.0
2.464921102385036e-06 0.0
2.420528325495215e-06 0.0
2.375743435747007e-06 0.0
2.330643361971032e-06 0.0
2.285259199531166e-06 0.0
2.239647234478955e-06 0.0
2.1938504312711007e-06 0.0
2.1479143677878642e-06 0.0
2.1018940812285174e-06 0.0
2.055834746844567e-06 0.0
2.009788611060981e-06 0.0
1.963797374405833e-06 0.0
1.9179004471272056e-06 0.0
1.8721584907745486e-06 0.0
1.8266040322344191e-06 0.0
1.7812780389927863e-06 0.0
1.736223856149106e-06 0.0
1.691482679862121e-06 0.0
1.647092857535835e-06 0.0
1.6030862302570342e-06 0.0
1.5595043857181384e-06 0.0
1.5163699298803938e-06 0.0
1.4737279409284823e-06 0.0
1.4315986628246687e-06 0.0
1.3900138512754936e-06 0.0
1.3490020677458944e-06 0.0
1.3085818443608194e-06 0.0
1.2687743279722136e-06 0.0
1.2295985774017938e-06 0.0
1.1910672571989518e-06 0.0
1.1532207524282826e-06 0.0
1.1160746105520522e-06 0.0
1.0796273107908746e-06 0.0
1.0438807074292059e-06 0.0
1.008863983256074e-06 0.0
9.74574875411665e-07 0.0
9.410274138484511e-07 0.0
9.082572067978311e-07 0.0
8.76254761553106e-07 0.0
8.450087707719603e-07 0.0
8.144803644839106e-07 0.0
7.847234388055649e-07 0.0
7.557435710272586e-07 0.0
7.274851831022679e-07 0.0
6.999925236958518e-07 0.0
6.73279488130541e-07 0.0
6.472745703472142e-07 0.0
6.22045102079261e-07 0.0
5.975449495134605e-07 0.0
5.737729980300453e-07 0.0
5.507480266235846e-07 0.0
5.28412916277105e-07 0.0
5.067800503338134e-07 0.0
4.858367186592206e-07 0.0
4.6558137711141965e-07 0.0
4.4598941023534717e-07 0.0
4.270503911669013e-07 0.0
4.0874963663325264e-07 0.0
3.9107264560983427e-07 0.0
3.740276057879673e-07 0.0
3.575872950080876e-07 0.0
3.4173903168539817e-07 0.0
3.2646356815365845e-07 0.0
3.117526058074341e-07 0.0
2.9759991704832623e-07 0.0
2.8401151163796085e-07 0.0
2.7091449129509174e-07 0.0
2.5834362558986013e-07 0.0
2.4625334826706435e-07 0.0
2.3462381832884114e-07 0.0
2.234851702137507e-07 0.0
2.1282267007019184e-07 0.0
2.025699870706474e-07 0.0
1.9275355514417311e-07 0.0
1.8333911228479136e-07 0.0
1.743270972925847e-07 0.0
1.6572583825216026e-07 0.0
1.5747011247377115e-07 0.0
1.495812377148515e-07 0.0
1.4203738157539697e-07 0.0
1.3481460008932797e-07 0.0
1.2792726268908534e-07 0.0
1.2135898389060566e-07 0.0
1.1508165471221908e-07 0.0
1.0909622714402627e-07 0.0
1.0338928651608425e-07 0.0
9.794781372307348e-08 0.0
9.276599381582468e-08 0.0
8.783113203832005e-08 0.0
8.313067261203514e-08 0.0
7.865666557999104e-08 0.0
7.439680620143657e-08 0.0
7.034898700258681e-08 0.0
6.650267698896805e-08 0.0
6.284706440450886e-08 0.0
5.9375605437379966e-08 0.0
5.6078581705386e-08 0.0
5.295241343670373e-08 0.0
4.998479984790005e-08 0.0
4.7160269662917164e-08 0.0
4.4487006230853405e-08 0.0
4.196150563322618e-08 0.0
3.956127037740494e-08 0.0
3.7281236031068186e-08 0.0
3.513008182953305e-08 0.0
3.3096333886970204e-08 0.0
3.116834787898208e-08 0.0
2.9343287314768424e-08 0.0
2.761807654936435e-08 0.0
2.598320025462875e-08 0.0
2.444152559021046e-08 0.0
2.2989022644303045e-08 0.0
2.161311383723184e-08 0.0
2.0313588074673015e-08 0.0
1.9087907348420976e-08 0.0
1.7927125675002262e-08 0.0
1.6836266937357518e-08 0.0
1.5807962371809006e-08 0.0
1.483757306279521e-08 0.0
1.3924824207121126e-08 0.0
1.3065437254239037e-08 0.0
1.2253996957516253e-08 0.0
1.1489935540702383e-08 0.0
1.0771108720346662e-08 0.0
1.0095180784961613e-08 0.0
9.459068464430287e-09 0.0
8.860807598646588e-09 0.0
8.29838616243716e-09 0.0
7.770054428071407e-09 0.0
7.273405622710894e-09 0.0
6.806947481282949e-09 0.0
6.3685794969027775e-09 0.0
5.956624521516817e-09 0.0
5.570286789500601e-09 0.0
5.20787564784171e-09 0.0
4.8678395670745856e-09 0.0
4.549175744916562e-09 0.0
4.250433246603595e-09 0.0
3.970092422464755e-09 0.0
3.707545653573149e-09 0.0
3.4613563556588317e-09 0.0
3.2308067174842247e-09 0.0
3.0151482408650844e-09 0.0
2.813236404455339e-09 0.0
2.623644019028735e-09 0.0
2.446866452863258e-09 0.0
2.2814585041413005e-09 0.0
2.1269451765574277e-09 0.0
1.982254342877171e-09 0.0
1.8469722811491471e-09 0.0
1.7205754343919361e-09 0.0
1.6024617712153526e-09 0.0
1.492064885671137e-09 0.0
1.388881447692973e-09 0.0
1.2925863259600807e-09 0.0
1.2028079864103054e-09 0.0
1.1190242268129748e-09 0.0
1.0408600559322177e-09 0.0
9.680052080195183e-10 0.0
9.00074992006397e-10 0.0
8.365260436000634e-10 0.0
7.774472780609613e-10 0.0
7.22438909217388e-10 0.0
6.71218569716701e-10 0.0
6.234602160017561e-10 0.0
5.790461942004531e-10 0.0
5.375262084627809e-10 0.0
4.990225533116274e-10 0.0
4.631706018798327e-10 0.0
4.2978832549907235e-10 0.0
3.9876778833392413e-10 0.0
3.699020240111681e-10 0.0
3.4303058016214255e-10 0.0
3.180494208393944e-10 0.0
2.9482471365569743e-10 0.0
2.7323908086955425e-10 0.0
2.5325170876430316e-10 0.0
2.345980981686252e-10 0.0
2.1731159058487097e-10 0.0
2.0125304963386137e-10 0.0
1.8635595534828268e-10 0.0
1.725469030911671e-10 0.0
1.597324291401685e-10 0.0
1.478231181146435e-10 0.0
1.3674722025406012e-10 0.0
1.2649968388965134e-10 0.0
1.170403346706698e-10 0.0
1.0828003301262645e-10 0.0
1.0010962551076468e-10 0.0
9.255107821672424e-11 0.0
8.553840271661231e-11 0.0
7.904636169940547e-11 0.0
7.303033676610722e-11 0.0
6.746566572925468e-11 0.0
6.231471169819632e-11 0.0
5.753368768451564e-11 0.0
5.3122080234763324e-11 0.0
4.904410740304792e-11 0.0
4.5278712454762437e-11 0.0
4.178827693056287e-11 0.0
3.855817297283423e-11 0.0
3.556936982788452e-11 0.0
3.280971456378255e-11 0.0
3.027094439738594e-11 0.0
2.7909320929955373e-11 0.0
2.5731198992246295e-11 0.0
2.372041898370332e-11 0.0
2.1860797188070512e-11 0.0
2.015146446905164e-11 0.0
1.856607943589713e-11 0.0
1.710092758642943e-11 0.0
1.5751937986805737e-11 0.0
1.4508018236376461e-11 0.0
1.3357285483967126e-11 0.0
1.2297328450845945e-11 0.0
1.1320000180628753e-11 0.0
1.0420414205521976e-11 0.0
9.589576173565675e-12 0.0
8.8203327805065e-12 0.0
8.115276227054072e-12 0.0
6.844805546051287e-12 0.0
6.2282681467220596e-12 0.0
5.6187781977026656e-12 0.0
5.0220159337447205e-12 0.0
4.444212885665116e-12 0.0
3.889497573072261e-12 0.0
3.3630397156741893e-12 0.0
2.87017555943542e-12 0.0
2.4145436778601487e-12 0.0
1.9993780036028772e-12 0.0
1.6279740903898566e-12 0.0
1.2996309349421725e-12 0.0
1.017100865626134e-12 0.0
7.773087276160477e-13 0.0
5.7840713633871e-13 0.0
4.1971201387176544e-13 0.0
2.9608929122752055e-13 0.0
2.010141510746842e-13 0.0
1.3262028663260753e-13 0.0
8.354553928414557e-14 0.0
5.026921152798145e-14 0.0
2.870296942573337e-14 0.0
1.582089884368732e-14 0.0
7.962980832639195e-15 0.0
3.854438436397999e-15 0.0
1.6968048556997326e-15 0.0
7.043020652793892e-16 0.0
2.7713336249482785e-16 0.0
1.056810884606113e-16 0.0
4.5224696721908035e-17 0.0
2.3967397914981846e-17 0.0
1.8031443151254132e-17 0.0
1.8430305325226417e-17 0.0
2.0212354770319016e-17 0.0
2.2840678144427854e-17 0.0
2.2348694989997792e-17 0.0
1.8890696753356137e-17 0.0
1.2933739389851104e-17 0.0
8.890215711502844e-18 0.0
5.918529020438548e-18 0.0
5.191520434749342e-18 0.0
1.3580096180326341e-17 0.0
3.6957230524543334e-17 0.0
4.8897527393042995e-17 0.0
3.242528912791195e-17 0.0
3.4796945185736543e-17 0.0
5.487748641809993e-17 0.0
4.852332205327887e-17 0.0
4.610179910545094e-17 0.0
4.497505878506191e-17 0.0
4.263146328051391e-17 0.0
2.229581257496365e-17 0.0
2.584532018821524e-17 0.0
-2.3037421341308492e-17 0.0
2.5389003653813156e-17 0.0
3.025740820385498e-17 0.0
4.367716665828257e-17 0.0
2.083870779431992e-17 0.0
3.593463047023432e-17 0.0
9.614078689223072e-17 0.0
6.501933590067625e-17 0.0
5.3102310207958414e-17 0.0
1.0323538466015352e-16 0.0
-5.140400249458477e-17 0.0
1.7384719470634078e-16 0.0
-6.742421974269727e-17 0.0
5.2310850179867147e-17 0.0
6.935499839169884e-17 0.0
-8.454656040545889e-17 0.0
1.7792439325929636e-16 0.0
-5.87415826641511e-17 0.0
3.4673558655156934e-17 0.0
8.564068289168502e-17 0.0
-9.612127084108805e-17 0.0
2.030453399457298e-16 0.0
5.246517238444259e-17 0.0
-1.5654454445750432e-16 0.0
6.355206929916223e-17 0.0
-5.619816250744668e-17 0.0
0.0 0.009234165287258466
0.0 0.022109785930450064
0.0 0.04006285207152422
0.0 0.06509563926322547
-8.389053191944835e-17 0.1
-1.2255557778128475e-16 0.1
1.4650273135167717e-15 0.1
-1.7488229941399783e-15 0.1
0.0 0.09234095951662877
0.0 0.08526779443702813
0.0 0.07873568783498464
0.0 0.07270325358169634
0.0 0.0671322687899449
0.0 0.06198743331091879
0.0 0.05723615233795044
0.0 0.05284831692952253
0.0 0.04879612844994266
0.0 0.045053910657842776
0.0 0.041597952827125646
0.0 0.038406357242571125
0.0 0.035458901718223614
0.0 0.032736910873327245
0.0 0.030223137736029547
0.0 0.02790165483820447
0.0 0.025757753001959087
0.0 0.023777848352113832
0.0 0.02194939580780366
0.0 0.020260810255894372
0.0 0.018701392223653815
0.0 0.017261261595035653
0.0 0.015931293336680398
0.0 0.014703060372940462
0.0 0.013568780782904731
0.0 0.01252126748286116
0.0 0.011553883413523683
0.0 0.010660499143843266
0.0 0.009835453922831602
0.0 0.009073520329637777
0.0 0.008369870608788809
0.0 0.007720046303381245
0.0 0.007119930012359653
0.0 0.00656571947351083
0.0 0.006053903138564417
0.0 0.005581237991452539
0.0 0.005144729225425679
0.0 0.004741611079672249
0.0 0.004369329243229215
0.0 0.004025535787197437
0.0 0.0037081745823207006
0.0 0.003415871564980879
0.0 0.0031477359041687794
0.0 0.00290244147353554
0.0 0.0026775773207082906
0.0 0.002471302166264478
0.0 0.0022831123408942645
0.0 0.0021121162639796275
0.0 0.0019561732267539657
0.0 0.0018146393811589608
0.0 0.0016868871523154827
0.0 0.0015712536641762503
0.0 0.0014667498859273103
0.0 0.0013729688166275364
0.0 0.0012891527615045385
0.0 0.0012148225397073651
0.0 0.0011490441970379382
0.0 0.0010913003460176168
0.0 0.0010411089620586105
0.0 0.0009980356990934602
0.0 0.0009614772652877108
0.0 0.0009311149188343149
0.0 0.000906400806506579
0.0 0.0008861364364888793
0.0 0.000870727216353501
0.0 0.0008581878924608825
0.0 0.0008490641673394411
0.0 0.0008425980768478035
0.0 0.0008380741951684767
0.0 0.0008352080395373491
0.0 0.0008331980761344381
0.0 0.000832002813210721
0.0 0.0008310256443957828
0.0 0.0008301469739330452
0.0 0.0008290994317863937
0.0 0.0008279978168046527
0.0 0.0008267004746982906
0.0 0.0008252238607003005
0.0 0.000823578515164096
0.0 0.0008216258650789885
0.0 0.0008195646602672032
0.0 0.0008173444613929968
0.0 0.0008151240574469992
-1.824898814118691e-17 0.004927245132662463
1.5927986301550817e-08 0.0027738900943136482
1.8317123566856923e-05 0.0015455741481723957
4.0463431823034404e-05 0.0009546285621454998
9.616992239409376e-07 0.0014045637408156273
3.839350335091074e-15 0.00225978494261082
5.991977586879493e-05 0.0006552610905068731
6.550771334235095e-10 0.0012867736961146418
1.3427004995424308e-05 0.0007809994274395361
4.965370802273777e-06 0.0007703687553109635
9.191034981624747e-07 0.0007099021976383241
3.0760875040137725e-08 0.0006767816409462438
1.906493756288846e-16 0.014973736461407886
2.8591663494578393e-10 0.000665729532897189
9.011951968555772e-06 0.00046371778362859647
2.2806074932313287e-06 0.00043871302647972274
7.267152730125079e-15 0.0011704180815649116
6.596443058725512e-05 0.0006422602905194856
3.238027677249736e-06 0.00038831525904984123
4.7568171068199295e-06 0.00042209321865181975
3.510413072593312e-06 0.0004005134846124009
1.6758719079749849e-06 0.00037738900941312355
4.4782626658880443e-07 0.0003780285876941357
1.6430000058570692e-12 0.0006414990046617889
7.866232298445941e-08 0.0003524765093710219
7.0200069335531264e-09 0.0003911923041569729
-2.241980894612656e-16 0.04847397115433144
1.2905788547891288e-05 0.0003407665894656081
-1.7265457739102198e-05 0.00026096972413873357
6.982826203396997e-10 0.0003340075859181979
3.299402653659563e-11 0.0003955732207007031