# vtk DataFile Version 3.0
Some data
ASCII
DATASET UNSTRUCTURED_GRID
POINTS 7930 float
0.0 0.0 0.0
0.0 10.0 0.0
10.0 10.0 0.0
10.0 0.0 0.0
0.5 0.0 0.0
0.0009999999999981016 0.0 0.0
0.001999999999996203 0.0 0.0
0.002999999999994305 0.0 0.0
0.003999999999992409 0.0 0.0
0.004999999999990531 0.0 0.0
0.005999999999988653 0.0 0.0
0.006999999999986775 0.0 0.0
0.007999999999984898 0.0 0.0
0.008999999999983018 0.0 0.0
0.009999999999981142 0.0 0.0
0.01099999999997926 0.0 0.0
0.01199999999997736 0.0 0.0
0.0129999999999754 0.0 0.0
0.01399999999997343 0.0 0.0
0.01499999999997147 0.0 0.0
0.01599999999996944 0.0 0.0
0.0169999999999673 0.0 0.0
0.01799999999996516 0.0 0.0
0.01899999999996302 0.0 0.0
0.01999999999996084 0.0 0.0
0.02099999999995862 0.0 0.0
0.02199999999995639 0.0 0.0
0.02299999999995417 0.0 0.0
0.02399999999995195 0.0 0.0
0.02499999999994972 0.0 0.0
0.0259999999999475 0.0 0.0
0.02699999999994527 0.0 0.0
0.02799999999994315 0.0 0.0
0.0289999999999411 0.0 0.0
0.02999999999993905 0.0 0.0
0.030999999999937 0.0 0.0
0.03199999999993521 0.0 0.0
0.0329999999999335 0.0 0.0
0.0339999999999318 0.0 0.0
0.03499999999993009 0.0 0.0
0.03599999999992853 0.0 0.0
0.036999999999927 0.0 0.0
0.03799999999992547 0.0 0.0
0.03899999999992394 0.0 0.0
0.03999999999992241 0.0 0.0
0.04099999999992088 0.0 0.0
0.04199999999991934 0.0 0.0
0.04299999999991782 0.0 0.0
0.04399999999991629 0.0 0.0
0.04499999999991475 0.0 0.0
0.04599999999991322 0.0 0.0
0.0469999999999117 0.0 0.0
0.04799999999991016 0.0 0.0
0.04899999999990863 0.0 0.0
0.0499999999999071 0.0 0.0
0.05099999999990557 0.0 0.0
0.05199999999990404 0.0 0.0
0.05299999999990251 0.0 0.0
0.05399999999990097 0.0 0.0
0.05499999999989943 0.0 0.0
0.05599999999989791 0.0 0.0
0.05699999999989638 0.0 0.0
0.05799999999989484 0.0 0.0
0.05899999999989317 0.0 0.0
0.05999999999989129 0.0 0.0
0.06099999999988941 0.0 0.0
0.06199999999988753 0.0 0.0
0.06299999999988531 0.0 0.0
0.06399999999988273 0.0 0.0
0.06499999999988015 0.0 0.0
0.06599999999987759 0.0 0.0
0.0669999999998748 0.0 0.0
0.06799999999987189 0.0 0.0
0.06899999999986897 0.0 0.0
0.06999999999986604 0.0 0.0
0.07099999999986313 0.0 0.0
0.0719999999998602 0.0 0.0
0.07299999999985729 0.0 0.0
0.07399999999985438 0.0 0.0
0.07499999999985145 0.0 0.0
0.07599999999984854 0.0 0.0
0.07699999999984562 0.0 0.0
0.0779999999998427 0.0 0.0
0.07899999999983978 0.0 0.0
0.07999999999983685 0.0 0.0
0.08099999999983394 0.0 0.0
0.08199999999983103 0.0 0.0
0.0829999999998281 0.0 0.0
0.08399999999982519 0.0 0.0
0.08499999999982226 0.0 0.0
0.08599999999981935 0.0 0.0
0.08699999999981643 0.0 0.0
0.0879999999998135 0.0 0.0
0.08899999999981059 0.0 0.0
0.08999999999980766 0.0 0.0
0.09099999999980475 0.0 0.0
0.09199999999980184 0.0 0.0
0.09299999999979891 0.0 0.0
0.093999999999796 0.0 0.0
0.09499999999979307 0.0 0.0
0.09599999999979016 0.0 0.0
0.09699999999978724 0.0 0.0
0.09799999999978432 0.0 0.0
0.0989999999997814 0.0 0.0
0.09999999999977847 0.0 0.0
0.1009999999997756 0.0 0.0
0.1019999999997726 0.0 0.0
0.1029999999997697 0.0 0.0
0.1039999999997668 0.0 0.0
0.1049999999997639 0.0 0.0
0.105999999999761 0.0 0.0
0.106999999999758 0.0 0.0
0.1079999999997551 0.0 0.0
0.1089999999997522 0.0 0.0
0.1099999999997493 0.0 0.0
0.1109999999997464 0.0 0.0
0.1119999999997434 0.0 0.0
0.1129999999997405 0.0 0.0
0.1139999999997376 0.0 0.0
0.1149999999997347 0.0 0.0
0.1159999999997318 0.0 0.0
0.1169999999997288 0.0 0.0
0.1179999999997259 0.0 0.0
0.118999999999723 0.0 0.0
0.1199999999997201 0.0 0.0
0.1209999999997172 0.0 0.0
0.1219999999997143 0.0 0.0
0.1229999999997113 0.0 0.0
0.1239999999997084 0.0 0.0
0.1249999999997055 0.0 0.0
0.1259999999997026 0.0 0.0
0.1269999999996997 0.0 0.0
0.1279999999996967 0.0 0.0
0.1289999999996938 0.0 0.0
0.1299999999996909 0.0 0.0
0.130999999999688 0.0 0.0
0.1319999999996851 0.0 0.0
0.1329999999996822 0.0 0.0
0.1339999999996792 0.0 0.0
0.1349999999996764 0.0 0.0
0.1359999999996734 0.0 0.0
0.1369999999996705 0.0 0.0
0.1379999999996676 0.0 0.0
0.1389999999996647 0.0 0.0
0.1399999999996618 0.0 0.0
0.1409999999996588 0.0 0.0
0.1419999999996559 0.0 0.0
0.142999999999653 0.0 0.0
0.1439999999996501 0.0 0.0
0.1449999999996472 0.0 0.0
0.1459999999996442 0.0 0.0
0.1469999999996414 0.0 0.0
0.1479999999996384 0.0 0.0
0.1489999999996355 0.0 0.0
0.1499999999996326 0.0 0.0
0.1509999999996297 0.0 0.0
0.1519999999996268 0.0 0.0
0.1529999999996239 0.0 0.0
0.1539999999996209 0.0 0.0
0.154999999999618 0.0 0.0
0.1559999999996151 0.0 0.0
0.1569999999996122 0.0 0.0
0.1579999999996093 0.0 0.0
0.1589999999996064 0.0 0.0
0.1599999999996035 0.0 0.0
0.1609999999996005 0.0 0.0
0.1619999999995976 0.0 0.0
0.1629999999995947 0.0 0.0
0.1639999999995918 0.0 0.0
0.1649999999995889 0.0 0.0
0.165999999999586 0.0 0.0
0.1669999999995831 0.0 0.0
0.1679999999995801 0.0 0.0
0.1689999999995772 0.0 0.0
0.1699999999995743 0.0 0.0
0.1709999999995714 0.0 0.0
0.1719999999995685 0.0 0.0
0.1729999999995655 0.0 0.0
0.1739999999995626 0.0 0.0
0.1749999999995597 0.0 0.0
0.1759999999995568 0.0 0.0
0.1769999999995539 0.0 0.0
0.177999999999551 0.0 0.0
0.178999999999548 0.0 0.0
0.1799999999995451 0.0 0.0
0.1809999999995422 0.0 0.0
0.1819999999995393 0.0 0.0
0.1829999999995364 0.0 0.0
0.1839999999995335 0.0 0.0
0.1849999999995305 0.0 0.0
0.1859999999995277 0.0 0.0
0.1869999999995247 0.0 0.0
0.1879999999995218 0.0 0.0
0.1889999999995189 0.0 0.0
0.189999999999516 0.0 0.0
0.1909999999995131 0.0 0.0
0.1919999999995101 0.0 0.0
0.1929999999995072 0.0 0.0
0.1939999999995043 0.0 0.0
0.1949999999995014 0.0 0.0
0.1959999999994985 0.0 0.0
0.1969999999994956 0.0 0.0
0.1979999999994927 0.0 0.0
0.1989999999994897 0.0 0.0
0.1999999999994868 0.0 0.0
0.2009999999994839 0.0 0.0
0.201999999999481 0.0 0.0
0.2029999999994781 0.0 0.0
0.2039999999994752 0.0 0.0
0.2049999999994722 0.0 0.0
0.2059999999994693 0.0 0.0
0.2069999999994664 0.0 0.0
0.2079999999994635 0.0 0.0
0.2089999999994606 0.0 0.0
0.2099999999994577 0.0 0.0
0.2109999999994548 0.0 0.0
0.2119999999994518 0.0 0.0
0.2129999999994489 0.0 0.0
0.213999999999446 0.0 0.0
0.2149999999994431 0.0 0.0
0.2159999999994402 0.0 0.0
0.2169999999994373 0.0 0.0
0.2179999999994343 0.0 0.0
0.2189999999994314 0.0 0.0
0.2199999999994285 0.0 0.0
0.2209999999994256 0.0 0.0
0.2219999999994227 0.0 0.0
0.2229999999994198 0.0 0.0
0.2239999999994168 0.0 0.0
0.2249999999994139 0.0 0.0
0.225999999999411 0.0 0.0
0.2269999999994081 0.0 0.0
0.2279999999994052 0.0 0.0
0.2289999999994023 0.0 0.0
0.2299999999993994 0.0 0.0
0.2309999999993964 0.0 0.0
0.2319999999993935 0.0 0.0
0.2329999999993906 0.0 0.0
0.2339999999993877 0.0 0.0
0.2349999999993848 0.0 0.0
0.2359999999993818 0.0 0.0
0.236999999999379 0.0 0.0
0.237999999999376 0.0 0.0
0.2389999999993731 0.0 0.0
0.2399999999993702 0.0 0.0
0.2409999999993673 0.0 0.0
0.2419999999993644 0.0 0.0
0.2429999999993615 0.0 0.0
0.2439999999993585 0.0 0.0
0.2449999999993556 0.0 0.0
0.2459999999993527 0.0 0.0
0.246999999999351 0.0 0.0
0.2479999999993495 0.0 0.0
0.248999999999348 0.0 0.0
0.2499999999993464 0.0 0.0
0.2509999999993477 0.0 0.0
0.2519999999993489 0.0 0.0
0.2529999999993502 0.0 0.0
0.2539999999993516 0.0 0.0
0.2549999999993542 0.0 0.0
0.2559999999993569 0.0 0.0
0.2569999999993595 0.0 0.0
0.2579999999993621 0.0 0.0
0.2589999999993647 0.0 0.0
0.2599999999993673 0.0 0.0
0.26099999999937 0.0 0.0
0.2619999999993726 0.0 0.0
0.2629999999993753 0.0 0.0
0.2639999999993779 0.0 0.0
0.2649999999993806 0.0 0.0
0.2659999999993832 0.0 0.0
0.2669999999993858 0.0 0.0
0.2679999999993884 0.0 0.0
0.2689999999993911 0.0 0.0
0.2699999999993937 0.0 0.0
0.2709999999993963 0.0 0.0
0.271999999999399 0.0 0.0
0.2729999999994017 0.0 0.0
0.2739999999994043 0.0 0.0
0.2749999999994069 0.0 0.0
0.2759999999994096 0.0 0.0
0.2769999999994122 0.0 0.0
0.2779999999994148 0.0 0.0
0.2789999999994174 0.0 0.0
0.2799999999994201 0.0 0.0
0.2809999999994228 0.0 0.0
0.2819999999994254 0.0 0.0
0.282999999999428 0.0 0.0
0.2839999999994306 0.0 0.0
0.2849999999994333 0.0 0.0
0.2859999999994359 0.0 0.0
0.2869999999994385 0.0 0.0
0.2879999999994411 0.0 0.0
0.2889999999994439 0.0 0.0
0.2899999999994465 0.0 0.0
0.2909999999994491 0.0 0.0
0.2919999999994517 0.0 0.0
0.2929999999994544 0.0 0.0
0.293999999999457 0.0 0.0
0.2949999999994596 0.0 0.0
0.2959999999994622 0.0 0.0
0.2969999999994649 0.0 0.0
0.2979999999994676 0.0 0.0
0.2989999999994702 0.0 0.0
0.2999999999994728 0.0 0.0
0.3009999999994754 0.0 0.0
0.3019999999994781 0.0 0.0
0.3029999999994807 0.0 0.0
0.3039999999994834 0.0 0.0
0.304999999999486 0.0 0.0
0.3059999999994886 0.0 0.0
0.3069999999994913 0.0 0.0
0.3079999999994939 0.0 0.0
0.3089999999994965 0.0 0.0
0.3099999999994992 0.0 0.0
0.3109999999995018 0.0 0.0
0.3119999999995045 0.0 0.0
0.3129999999995071 0.0 0.0
0.3139999999995097 0.0 0.0
0.3149999999995123 0.0 0.0
0.315999999999515 0.0 0.0
0.3169999999995176 0.0 0.0
0.3179999999995203 0.0 0.0
0.3189999999995229 0.0 0.0
0.3199999999995256 0.0 0.0
0.3209999999995282 0.0 0.0
0.3219999999995308 0.0 0.0
0.3229999999995334 0.0 0.0
0.323999999999536 0.0 0.0
0.3249999999995387 0.0 0.0
0.3259999999995414 0.0 0.0
0.326999999999544 0.0 0.0
0.3279999999995466 0.0 0.0
0.3289999999995493 0.0 0.0
0.3299999999995519 0.0 0.0
0.3309999999995545 0.0 0.0
0.3319999999995571 0.0 0.0
0.3329999999995598 0.0 0.0
0.3339999999995625 0.0 0.0
0.3349999999995651 0.0 0.0
0.3359999999995677 0.0 0.0
0.3369999999995703 0.0 0.0
0.337999999999573 0.0 0.0
0.3389999999995756 0.0 0.0
0.3399999999995783 0.0 0.0
0.3409999999995809 0.0 0.0
0.3419999999995835 0.0 0.0
0.3429999999995862 0.0 0.0
0.3439999999995888 0.0 0.0
0.3449999999995914 0.0 0.0
0.345999999999594 0.0 0.0
0.3469999999995967 0.0 0.0
0.3479999999995994 0.0 0.0
0.348999999999602 0.0 0.0
0.3499999999996046 0.0 0.0
0.3509999999996072 0.0 0.0
0.3519999999996099 0.0 0.0
0.3529999999996125 0.0 0.0
0.3539999999996151 0.0 0.0
0.3549999999996178 0.0 0.0
0.3559999999996205 0.0 0.0
0.3569999999996231 0.0 0.0
0.3579999999996257 0.0 0.0
0.3589999999996283 0.0 0.0
0.359999999999631 0.0 0.0
0.3609999999996336 0.0 0.0
0.3619999999996362 0.0 0.0
[...]
POINT_DATA 7930
SCALARS Disp float 2
LOOKUP_TABLE default
0.0 0.002075828580961458
0.0 0.1
0.0 0.1
0.0 0.0
3.5145339366722137e-06 0.0
-6.8818780180742626e-06 0.002075627881855994
-1.3743291199548265e-05 0.0020752697807802437
-2.06198896520319e-05 0.0020749081737488867
-2.7463174248603923e-05 0.0020739525599720934
-3.410746406250142e-05 0.002072649835246214
-4.098050259342599e-05 0.0020719302286461654
-4.8147582746701865e-05 0.002070830616043879
-5.489812560223227e-05 0.0020684620995874534
-6.133925127315132e-05 0.002066131654177393
-6.800858881119554e-05 0.0020650378950463604
-7.543340570226914e-05 0.0020637939494260343
-8.254809887906364e-05 0.0020602120551112663
-8.865166571910445e-05 0.0020563531103438247
-9.521111309675671e-05 0.0020544965546287477
-0.00010278122801674183 0.002052951794788457
-0.00010993100483606318 0.002048712182955497
-0.00011620982644859348 0.002043629222882071
-0.00012260021065523357 0.0020406780515863695
-0.00013027707877819535 0.0020382425486703973
-0.0001375912547351151 0.002032885329696274
-0.00014375871776651266 0.0020264953293793976
-0.00015004356296956106 0.002022961525492728
-0.00015770445938349128 0.0020201441866148488
-0.00016526898103933586 0.0020136949770295414
-0.00017123734860461233 0.0020055209603731814
-0.00017726735139763462 0.0020010465738285483
-0.0001846983802610571 0.001997749985609647
-0.0001923800750430565 0.001990733363270473
-0.00019850066622860955 0.0019816465965803993
-0.00020446842422683424 0.0019758052708213234
-0.0002118517174378571 0.001971807685336802
-0.00021957800558341367 0.0019639308850207815
-0.00022569851065676447 0.0019535275707555024
-0.0002317308651845216 0.0019464375198678067
-0.00023891067957615314 0.0019417952377037372
-0.0002468202297085156 0.001933249096091031
-0.00025300281904953696 0.0019216139139227686
-0.00025865865261121164 0.0019133896418873928
-0.0002659911034734537 0.0019081289684534616
-0.0002739818957533379 0.0018987305784493747
-0.0002802490558563454 0.001885817495826612
-0.00028623261339080303 0.0018763916216881472
-0.00029341365070031255 0.0018699054313259696
-0.00030172667847332656 0.0018594527164172059
-0.00030817421416098076 0.0018448877940262568
-0.00031367314163746715 0.0018337061610411156
-0.0003210046712815925 0.0018262900121909834
-0.0003288041421341763 0.001815144740194622
-0.0003354547221840865 0.0017996289628400422
-0.00034115504404338065 0.0017867883948432034
-0.00034821457215916744 0.0017779588386946307
-0.0003562251320042573 0.0017657365432810314
-0.0003630357899825487 0.0017480776015656647
-0.0003683910222570626 0.001733858733259934
-0.0003752858973888518 0.0017241268513865282
-0.0003835578036868338 0.0017107224463258886
-0.00039034112028400904 0.0016916578325759592
-0.00039551672132308606 0.0016751741744326254
-0.0004021057376630029 0.0016638188196776461
-0.0004102682889181243 0.0016496619590799914
-0.00041739943664045035 0.001629387173531326
-0.0004231207477313693 0.0016107359260097741
-0.00042970178683330955 0.0015973880490403756
-0.0004377126347416133 0.0015815727360970688
-0.0004448290261214234 0.001559339795110878
-0.00045013504669161455 0.0015385684021856092
-0.0004564397866697895 0.0015235617592264297
-0.0004645608710186024 0.0015063319632242535
-0.0004720984315110252 0.0014820973516784602
-0.00047762675031038076 0.0014587643367243335
-0.0004839235963002718 0.0014412955960461677
-0.000491857278652045 0.0014220018653364795
-0.0004995331211209167 0.00139517102237571
-0.0005050970367820757 0.0013684640133656137
-0.0005110951818373754 0.0013479895785171309
-0.0005192697377316465 0.0013261115040264684
-0.0005270092809900185 0.0012962982717208322
-0.0005324214635104742 0.0012663325670227567
-0.0005383120673663602 0.001242606137122249
-0.0005465035760871506 0.0012175525770888478
-0.0005546468698395201 0.001184068732334526
-0.0005599701808458825 0.001149365429733656
-0.0005656710256424243 0.0011206005997953356
-0.0005739876414853122 0.0010911013513349812
-0.0005814396971207836 0.0010524963218734235
-0.0005871114331501594 0.0010116440126645835
-0.0005925775735278862 0.000976996203112871
-0.0006004960541097351 0.0009410456203217868
-0.0006088237912137703 0.0008948847191020788
-0.0006142378923192282 0.0008447505724445912
-0.0006193791934771571 0.0007995515515860418
-0.0006273421864715525 0.0007519792471081553
-0.0006345311114715419 0.0006924615297994811
-0.0006407200422496162 0.0006249446665058928
-0.0006456091142893643 0.0005575137695661448
-0.00065011015510086 0.0004825246001296397
-0.0006555564718046124 0.00037957386818561885
-0.0006480469139276803 0.00023930927904450007
-0.0006294340300006325 0.0
-0.0005729835498995209 0.0
-0.0005389179933286795 0.0
-0.0005124869012645504 0.0
-0.00049226709463783 0.0
-0.00047542778465566856 0.0
-0.0004605163877574011 0.0
-0.00044692484762243043 0.0
-0.00043470251292501553 0.0
-0.00042378973995949064 0.0
-0.00041313149175123756 0.0
-0.00040344326574688665 0.0
-0.00039445507086333033 0.0
-0.0003859289483850838 0.0
-0.00037790957155939156 0.0
-0.0003703294627627216 0.0
-0.0003630792282579925 0.0
-0.0003561915437538171 0.0
-0.00034964456193518564 0.0
-0.00034338818241444404 0.0
-0.0003374689962595807 0.0
-0.00033161548718866723 0.0
-0.0003260953641214531 0.0
-0.0003207489885621807 0.0
-0.0003156277072734967 0.0
-0.0003106269827576872 0.0
-0.0003058274110361356 0.0
-0.00030117498915839465 0.0
-0.0002966625210269651 0.0
-0.00029228295507313526 0.0
-0.0002880373771375742 0.0
-0.0002839130638588247 0.0
-0.0002798991233789355 0.0
-0.0002759885566055898 0.0
-0.00027219799800769115 0.0
-0.0002685256993885214 0.0
-0.00026489555309571513 0.0
-0.00026138706590639647 0.0
-0.0002579519697227511 0.0
-0.0002546040713850824 0.0
-0.00025133163225763924 0.0
-0.0002481358203847593 0.0
-0.0002450181967105129 0.0
-0.00024197446598372022 0.0
-0.0002389994698784449 0.0
-0.00023608226781253333 0.0
-0.00023323171298046574 0.0
-0.00023044365603366404 0.0
-0.00022771050207673617 0.0
-0.00022503657770141401 0.0
-0.00022241558129282174 0.0
-0.00021984151912981024 0.0
-0.00021731689311605402 0.0
-0.00021484045973409278 0.0
-0.00021240648754132865 0.0
-0.000210015306916824 0.0
-0.00020767142040161604 0.0
-0.00020537729842194432 0.0
-0.0002031053056421103 0.0
-0.00020089264389075936 0.0
-0.00019871367172367218 0.0
-0.00019657342468813827 0.0
-0.00019447811657190652 0.0
-0.00019239887254761935 0.0
-0.0001903716355716829 0.0
-0.00018837686104643242 0.0
-0.00018641334112838982 0.0
-0.0001844834001133731 0.0
-0.00018258369960318078 0.0
-0.00018071252045909024 0.0
-0.00017886797860130633 0.0
-0.00017705079640823298 0.0
-0.00017525873053168768 0.0
-0.00017348841373259125 0.0
-0.0001717452774132486 0.0
-0.00017002849942422655 0.0
-0.00016833334694138293 0.0
-0.000166659876545599 0.0
-0.00016501047519678255 0.0
-0.00016338556580695846 0.0
-0.00016177920899336073 0.0
-0.00016019474879012382 0.0
-0.0001586334913722577 0.0
-0.00015709197769533435 0.0
-0.0001555702887232479 0.0
-0.00015406916405283515 0.0
-0.00015258990332204096 0.0
-0.00015112787189208146 0.0
-0.00014968507184739624 0.0
-0.0001482606028560614 0.0
-0.00014685337807161285 0.0
-0.00014546447435939217 0.0
-0.00014409379670909638 0.0
-0.00014273801799991666 0.0
-0.00014139854022750698 0.0
-0.00014007400417613208 0.0
-0.00013876486472228088 0.0
-0.00013747282308920498 0.0
-0.00013619479776653173 0.0
-0.00013493011428979625 0.0
-0.00013368176114892383 0.0
-0.00013244610252140636 0.0
-0.0001312248985745365 0.0
-0.0001300190012168704 0.0
-0.00012882710958999943 0.0
-0.00012764822600726082 0.0
-0.00012648563706756298 0.0
-0.00012533186059661075 0.0
-0.00012419150675786465 0.0
-0.00012306418957326305 0.0
-0.00012195079434952811 0.0
-0.00012084887697865787 0.0
-0.00011975880173225532 0.0
-0.00011868074098779285 0.0
-0.00011761291296549303 0.0
-0.00011655571011963143 0.0
-0.00011551307069371441 0.0
-0.00011447413979409073 0.0
-0.0001134481440993606 0.0
-0.00011243268941094062 0.0
-0.00011142523458411414 0.0
-0.00011042741454493117 0.0
-0.00010943908136937908 0.0
-0.00010845964677700596 0.0
-0.00010748879670119753 0.0
-0.00010652710035659778 0.0
-0.00010557432878123766 0.0
-0.0001046298085573193 0.0
-0.00010369467364857755 0.0
-0.00010276785916625393 0.0
-0.00010184942991920381 0.0
-0.00010094004868178673 0.0
-0.00010003832130258939 0.0
-9.914411624255597e-05 0.0
-9.825869114062309e-05 0.0
-9.738155370210705e-05 0.0
-9.651138218526969e-05 0.0
-9.565017276848361e-05 0.0
-9.479638798327537e-05 0.0
-9.395085556371859e-05 0.0
-9.311312807337604e-05 0.0
-9.228289424086827e-05 0.0
-9.146000619118792e-05 0.0
-9.064457216992514e-05 0.0
-8.983702622230032e-05 0.0
-8.903637248521359e-05 0.0
-8.824334521846636e-05 0.0
-8.745879203963847e-05 0.0
-8.66806375431435e-05 0.0
-8.590974823605515e-05 0.0
-8.514695382494588e-05 0.0
-8.439121993466567e-05 0.0
-8.364272463416537e-05 0.0
-8.290128337674175e-05 0.0
-8.21663107997738e-05 0.0
-8.143817899646002e-05 0.0
-8.071712012776531e-05 0.0
-8.000202846856157e-05 0.0
-7.929324138465361e-05 0.0
-7.859045147031098e-05 0.0
-7.789370466099288e-05 0.0
-7.720278034249641e-05 0.0
-7.651738737593973e-05 0.0
-7.583713526288782e-05 0.0
-7.516178353382625e-05 0.0
-7.449165855400308e-05 0.0
-7.38262226801201e-05 0.0
-7.316581782093278e-05 0.0
-7.251032165155482e-05 0.0
-7.18595488297616e-05 0.0
-7.121164644615448e-05 0.0
-7.05710380614021e-05 0.0
-6.99328710460541e-05 0.0
-6.930122202256213e-05 0.0
-6.867231293653526e-05 0.0
-6.804846177712509e-05 0.0
-6.74294201419615e-05 0.0
-6.681528091764878e-05 0.0
-6.620600878490618e-05 0.0
-6.560138383268106e-05 0.0
-6.500169189863583e-05 0.0
-6.440696403787554e-05 0.0
-6.381688920229203e-05 0.0
-6.323133030419627e-05 0.0
-6.265056622573293e-05 0.0
-6.20744493004664e-05 0.0
-6.150256496504886e-05 0.0
-6.093508888143873e-05 0.0
-6.0372038180578284e-05 0.0
-5.9813240779334437e-05 0.0
-5.9258652559973865e-05 0.0
-5.8705891721568156e-05 0.0
-5.815822626413737e-05 0.0
-5.761407049461085e-05 0.0
-5.707327988714736e-05 0.0
-5.653685268602692e-05 0.0
-5.600199972733089e-05 0.0
-5.547063267751425e-05 0.0
-5.4942629560074594e-05 0.0
-5.4417904362155154e-05 0.0
-5.389603638038798e-05 0.0
-5.337722566333344e-05 0.0
-5.28614143611124e-05 0.0
-5.234894096024259e-05 0.0
-5.183961001467024e-05 0.0
-5.1333521321572884e-05 0.0
-5.08309031813181e-05 0.0
-5.033191517443795e-05 0.0
-4.9836623220269745e-05 0.0
-4.934338905971438e-05 0.0
-4.885471490229035e-05 0.0
-4.836995587140278e-05 0.0
-4.788916449849016e-05 0.0
-4.7413116262932416e-05 0.0
-4.6939162439945086e-05 0.0
-4.646931447640512e-05 0.0
-4.600354909344008e-05 0.0
-4.554172668413803e-05 0.0
-4.508364401745184e-05 0.0
-4.462977159277876e-05 0.0
-4.417947809208777e-05 0.0
-4.3732826295779806e-05 0.0
-4.328956666523994e-05 0.0
-4.284973790497304e-05 0.0
-4.241322066927173e-05 0.0
-4.197965353108066e-05 0.0
-4.154923000861064e-05 0.0
-4.112208655456015e-05 0.0
-4.0697401571757435e-05 0.0
-4.027532302315642e-05 0.0
-3.985606059473751e-05 0.0
-3.943926149881165e-05 0.0
-3.902472617287674e-05 0.0
-3.861263504985458e-05 0.0
-3.820265767436415e-05 0.0
-3.779504721175662e-05 0.0
-3.738960219102279e-05 0.0
-3.698626008859045e-05 0.0
-3.6584988362992436e-05 0.0
-3.618587623911471e-05 0.0
-3.578911593390996e-05 0.0
-3.5394613576168904e-05 0.0
-3.500228326426458e-05 0.0
-3.461216308399164e-05 0.0
-3.422448582902978e-05 0.0
-3.383923321439712e-05 0.0
-3.34562967693202e-05 0.0
-3.307600944748085e-05 0.0
-3.2698350689192635e-05 0.0
-3.232331194480255e-05 0.0
-3.195079788690807e-05 0.0
-3.158100621605724e-05 0.0
-3.12139762533813e-05 0.0
-3.084946651341125e-05 0.0
-3.04878097058235e-05 0.0
-3.012875424586649e-05 0.0
-2.9772309886728873e-05 0.0
-2.9418504271571045e-05 0.0
-2.9067283738729846e-05 0.0
-2.8718683071289322e-05 0.0
-2.837250749598213e-05 0.0
-2.802869763408785e-05 0.0
-2.7687289461086798e-05 0.0
-2.73481508240503e-05 0.0
-2.701127018316358e-05 0.0
-2.667653839927011e-05 0.0
-2.6343857605511066e-05 0.0
-2.6013138407323217e-05 0.0
-2.5684394129879107e-05 0.0
-2.5357576112647522e-05 0.0
-2.503264711709632e-05 0.0
-2.470869085698604e-05 0.0
-2.4386874111273977e-05 0.0
-2.4066757914141918e-05 0.0
-2.374823675828449e-05 0.0
-2.3431316149437944e-05 0.0
-2.3115994839705547e-05 0.0
-2.2802247861706873e-05 0.0
-2.249001452967175e-05 0.0
-2.2179442348994076e-05 0.0
-2.1870395395091555e-05 0.0
-2.156302189781661e-05 0.0
-2.1257398152238873e-05 0.0
-2.0953485370089112e-05 0.0
-2.0651339963743042e-05 0.0
-2.035114530962632e-05 0.0
-2.0052670672764822e-05 0.0
-1.9756152457256738e-05 0.0
-1.946158269487261e-05 0.0
-1.9169065263578e-05 0.0
-1.8878534959631848e-05 0.0
-1.859013758781344e-05 0.0
-1.830396886319553e-05 0.0
-1.8019855084291268e-05 0.0
-1.7737933179943878e-05 0.0
-1.7458246846999317e-05 0.0
-1.7180725608282974e-05 0.0
-1.690544287217274e-05 0.0
-1.6632371432846627e-05 0.0
-1.6361453801749052e-05 0.0
-1.6092628236135238e-05 0.0
-1.582608686573427e-05 0.0
-1.5561547443137035e-05 0.0
-1.529900186212621e-05 0.0
-1.5038503412804454e-05 0.0
-1.4780005537543373e-05 0.0
-1.4523309152821312e-05 0.0
-1.4268380231628863e-05 0.0
-1.4015219877870677e-05 0.0
-1.3763790750683264e-05 0.0
-1.3513877181271281e-05 0.0
-1.3265496453670946e-05 0.0
-1.3018498316821185e-05 0.0
-1.2772826968361459e-05 0.0
-1.2528620323804992e-05 0.0
-1.2285799720165614e-05 0.0
-1.2044179620950678e-05 0.0
-1.180381772046385e-05 0.0
-1.156464901855433e-05 0.0
-1.132660440131845e-05 0.0
-1.1089713399762809e-05 0.0
-1.0853869334332473e-05 0.0
-1.0619204620807126e-05 0.0
-1.0385723364453321e-05 0.0
-1.0153350998976304e-05 0.0
-9.922105380832884e-06 0.0
-9.692096622150337e-06 0.0
-9.463367642544486e-06 0.0
-9.235841888395675e-06 0.0
-9.009607496085654e-06 0.0
-8.784656041387433e-06 0.0
-8.561125168083143e-06 0.0
-8.339043525628691e-06 0.0
-8.118361841823827e-06 0.0
-7.899219669544584e-06 0.0
-7.681814743879455e-06 0.0
-7.465771082317105e-06 0.0
-7.251473989842485e-06 0.0
-7.038905928960332e-06 0.0
-6.828138564550437e-06 0.0
-6.6190905830866634e-06 0.0
-6.411717959497598e-06 0.0
-6.206253446452864e-06 0.0
-6.002650433842797e-06 0.0
-5.800944469559211e-06 0.0
-5.601164433266732e-06 0.0
-5.402995513046438e-06 0.0
-5.206664461581988e-06 0.0
-5.012196004456633e-06 0.0
-4.819501681109743e-06 0.0
-4.62848468878349e-06 0.0
-4.4392415089155715e-06 0.0
-4.251630020042618e-06 0.0
-4.0655798674426344e-06 0.0
-3.881093554618385e-06 0.0
-3.698079048791282e-06 0.0
-3.516554156359622e-06 0.0
-3.3364552595465478e-06 0.0
-3.1577303979078668e-06 0.0
-2.9801334797796566e-06 0.0
-2.8038861213909535e-06 0.0
-2.6288232467364392e-06 0.0
-2.45494116557687e-06 0.0
-2.2820816885140035e-06 0.0
-2.1102525051924284e-06 0.0
-1.939358168399176e-06 0.0
-1.7694296939439426e-06 0.0
-1.6004650611882793e-06 0.0
-1.432374576860684e-06 0.0
-1.265111536954541e-06 0.0
-1.0987060774571688e-06 0.0
-9.330927209346542e-07 0.0
-7.683323914397492e-07 0.0
-6.044128837059965e-07 0.0
-4.413721417021232e-07 0.0
-2.7919591505610483e-07 0.0
-1.1791099463397432e-07 0.0
4.242433146609679e-08 0.0
2.0180783231872344e-07 0.0
3.6021828616359177e-07 0.0
5.176194184241484e-07 0.0
6.739806672996592e-07 0.0
8.292250677471497e-07 0.0
9.832955381567683e-07 0.0
1.1361803788730392e-06 0.0
1.2879067630999222e-06 0.0
1.438272861406437e-06 0.0
1.5872848483700339e-06 0.0
1.7349342314679032e-06 0.0
1.88106597460667e-06 0.0
2.0258731337311608e-06 0.0
2.169213268312617e-06 0.0
2.3109922010619003e-06 0.0
2.4512263829801655e-06 0.0
2.589968033258959e-06 0.0
2.7270651330550975e-06 0.0
2.8624873561948413e-06 0.0
2.996191934140866e-06 0.0
3.1282685254002805e-06 0.0
3.258806245415723e-06 0.0
3.3875090828205177e-06 0.0
3.6444230162381508e-06 0.0
3.783538717899996e-06 0.0
3.9324715914061676e-06 0.0
4.091652586711452e-06 0.0
4.261479411606968e-06 0.0
4.44245038926301e-06 0.0
4.6349109068027524e-06 0.0
4.839114760915577e-06 0.0
5.055499811513738e-06 0.0
5.284230792253647e-06 0.0
5.525382143971514e-06 0.0
5.7793885109288565e-06 0.0
6.045220606459988e-06 0.0
6.3234026240862556e-06 0.0
6.6122323781802566e-06 0.0
6.9092514414058995e-06 0.0
7.209231633119513e-06 0.0
7.509079973773339e-06 0.0
7.79990624506157e-06 0.0
8.07796945801828e-06 0.0
8.333711223209509e-06 0.0
8.559567648048774e-06 0.0
8.74739574737294e-06 0.0
8.910263206782546e-06 0.0
9.040005775661441e-06 0.0
9.142953429081058e-06 0.0
9.202044110144867e-06 0.0
9.194632724750783e-06 0.0
9.096598198186465e-06 0.0
8.893249916066873e-06 0.0
8.599830881785366e-06 0.0
8.243479785667329e-06 0.0
7.824129663637076e-06 0.0
7.296430405228337e-06 0.0
6.617724244295074e-06 0.0
5.808259214221597e-06 0.0
4.960462400794409e-06 0.0
4.1125926058090244e-06 0.0
3.1593564965229805e-06 0.0
2.0801990754902645e-06 0.0
1.062683826056029e-06 0.0
3.856530864554978e-07 0.0
9.484003186385379e-08 0.0
1.1315392266753123e-08 0.0
4.2267503827198254e-10 0.0
4.4888930323284595e-12 0.0
-3.613936092049709e-12 0.0
-1.5809447321464124e-12 0.0
9.77219634498283e-13 0.0
6.44019698749573e-14 0.0
3.5424380269331025e-14 0.0
1.9981864066114473e-14 0.0
1.4764944203388515e-14 0.0
6.978292832546405e-15 0.0
9.419529355872802e-15 0.0
1.5094939487156783e-15 0.0
4.504438907373822e-16 0.0
-1.166832658772388e-16 0.0
3.3240264768311395e-16 0.0
1.831073047458134e-16 0.0
6.952032570413738e-17 0.0
3.589529893317038e-16 0.0
6.626805305409017e-16 0.0
4.9321328809078373e-17 0.0
-2.3818113887338983e-16 0.0
-6.348221591541541e-16 0.0
-3.763567579672905e-16 0.0
3.8577048652247593e-16 0.0
-1.9379284710675988e-16 0.0
-3.4988273048693384e-16 0.0
8.771328927164621e-16 0.0
7.177307723633146e-16 0.0
-2.0321969146568995e-15 0.0
8.522171507326111e-16 0.0
2.2157405109444013e-15 0.0
-2.7481495373399078e-15 0.0
4.829725974823731e-16 0.0
1.4125271289369624e-15 0.0
-2.0016435910304753e-15 0.0
0.0 0.00923416528725956
0.0 0.0221097859304644
0.0 0.04006285207144627
0.0 0.06509563926308488
-2.974629137383564e-15 0.1
-3.87652605274008e-15 0.1
4.451398864666345e-14 0.1
-4.556395812209839e-14 0.1
0.0 0.09234095951657988
0.0 0.08526779443703417
0.0 0.07873568783499324
0.0 0.07270325358165636
0.0 0.06713226878990601
0.0 0.06198743331091116
0.0 0.05723615233795363
0.0 0.052848316929525525
0.0 0.04879612844994221
0.0 0.04505391065785026
0.0 0.041597952827130545
0.0 0.038406357242575795
0.0 0.0354589017182271
0.0 0.0327369108733372
0.0 0.030223137736036024
0.0 0.027901654838211585
0.0 0.025757753001949997
0.0 0.023777848352155344
0.0 0.021949395807344244
0.0 0.020260810257190388
0.0 0.01870139222411205
0.0 0.017261261599935945
0.0 0.015931293306811596
0.0 0.014703060978063755
0.0 0.013568780107471593
0.0 0.012521276412339499
0.0 0.011553848003701631
0.0 0.010660627566476776
0.0 0.00983516790859311
0.0 0.009073536929291817
0.0 0.008375674123685745
0.0 0.007735310005824039
0.0 0.007148468224356281
0.0 0.006610011781983649
0.0 0.006117321888751079
0.0 0.005668128747690145
0.0 0.005258798765194592
0.0 0.004887000902137868
0.0 0.00454985254181883
0.0 0.00424384000583674
0.0 0.003966849089162795
0.0 0.0037169796088825863
0.0 0.003492478996615297
0.0 0.0032912388329892905
0.0 0.003112677730672574
0.0 0.002953953998053216
0.0 0.0028141338177298564
0.0 0.002692188343903944
0.0 0.002586007568192766
0.0 0.002495021229244512
0.0 0.0024187968647701977
0.0 0.002354164543734874
0.0 0.002300614220225612
0.0 0.002257391146640382
0.0 0.002222228370890221
0.0 0.0021949994819920773
0.0 0.002173951716652168
0.0 0.0021583715057138853
0.0 0.0021468294879820253
0.0 0.002138661895628242
0.0 0.00213280010982376
0.0 0.0021285213444234654
0.0 0.0021257987906444244
0.0 0.002123278405993507
0.0 0.0021219036841085516
0.0 0.0021198106495212894
0.0 0.0021181689625752397
0.0 0.0021164639456401225
0.0 0.002114548130967049
0.0 0.002112460694342444
0.0 0.0021100600784685754
0.0 0.0021075573993253136
0.0 0.002104895008294574
0.0 0.0021021767178952093
0.0 0.0020993522795432836
0.0 0.002096562157552532
0.0 0.0020937609879012205
0.0 0.0020909765834003636
0.0 0.002088238656296992
0.0 0.0020855425658729983
0.0 0.002082990582940697
0.0 0.0020805003883097957
0.0 0.0020781009332518498
1.4744988437517035e-05 0.004938362938369271
8.64710317984508e-05 0.002846892797383441