# vtk DataFile Version 3.0
Some data
ASCII
DATASET UNSTRUCTURED_GRID
POINTS 7930 float
0.0 0.0 0.0
0.0 10.0 0.0
10.0 10.0 0.0
10.0 0.0 0.0
0.5 0.0 0.0
0.0009999999999981016 0.0 0.0
0.001999999999996203 0.0 0.0
0.002999999999994305 0.0 0.0
0.003999999999992409 0.0 0.0
0.004999999999990531 0.0 0.0
0.005999999999988653 0.0 0.0
0.006999999999986775 0.0 0.0
0.007999999999984898 0.0 0.0
0.008999999999983018 0.0 0.0
0.009999999999981142 0.0 0.0
0.01099999999997926 0.0 0.0
0.01199999999997736 0.0 0.0
0.0129999999999754 0.0 0.0
0.01399999999997343 0.0 0.0
0.01499999999997147 0.0 0.0
0.01599999999996944 0.0 0.0
0.0169999999999673 0.0 0.0
0.01799999999996516 0.0 0.0
0.01899999999996302 0.0 0.0
0.01999999999996084 0.0 0.0
0.02099999999995862 0.0 0.0
0.02199999999995639 0.0 0.0
0.02299999999995417 0.0 0.0
0.02399999999995195 0.0 0.0
0.02499999999994972 0.0 0.0
0.0259999999999475 0.0 0.0
0.02699999999994527 0.0 0.0
0.02799999999994315 0.0 0.0
0.0289999999999411 0.0 0.0
0.02999999999993905 0.0 0.0
0.030999999999937 0.0 0.0
0.03199999999993521 0.0 0.0
0.0329999999999335 0.0 0.0
0.0339999999999318 0.0 0.0
0.03499999999993009 0.0 0.0
0.03599999999992853 0.0 0.0
0.036999999999927 0.0 0.0
0.03799999999992547 0.0 0.0
0.03899999999992394 0.0 0.0
0.03999999999992241 0.0 0.0
0.04099999999992088 0.0 0.0
0.04199999999991934 0.0 0.0
0.04299999999991782 0.0 0.0
0.04399999999991629 0.0 0.0
0.04499999999991475 0.0 0.0
0.04599999999991322 0.0 0.0
0.0469999999999117 0.0 0.0
0.04799999999991016 0.0 0.0
0.04899999999990863 0.0 0.0
0.0499999999999071 0.0 0.0
0.05099999999990557 0.0 0.0
0.05199999999990404 0.0 0.0
0.05299999999990251 0.0 0.0
0.05399999999990097 0.0 0.0
0.05499999999989943 0.0 0.0
0.05599999999989791 0.0 0.0
0.05699999999989638 0.0 0.0
0.05799999999989484 0.0 0.0
0.05899999999989317 0.0 0.0
0.05999999999989129 0.0 0.0
0.06099999999988941 0.0 0.0
0.06199999999988753 0.0 0.0
0.06299999999988531 0.0 0.0
0.06399999999988273 0.0 0.0
0.06499999999988015 0.0 0.0
0.06599999999987759 0.0 0.0
0.0669999999998748 0.0 0.0
0.06799999999987189 0.0 0.0
0.06899999999986897 0.0 0.0
0.06999999999986604 0.0 0.0
0.07099999999986313 0.0 0.0
0.0719999999998602 0.0 0.0
0.07299999999985729 0.0 0.0
0.07399999999985438 0.0 0.0
0.07499999999985145 0.0 0.0
0.07599999999984854 0.0 0.0
0.07699999999984562 0.0 0.0
0.0779999999998427 0.0 0.0
0.07899999999983978 0.0 0.0
0.07999999999983685 0.0 0.0
0.08099999999983394 0.0 0.0
0.08199999999983103 0.0 0.0
0.0829999999998281 0.0 0.0
0.08399999999982519 0.0 0.0
0.08499999999982226 0.0 0.0
0.08599999999981935 0.0 0.0
0.08699999999981643 0.0 0.0
0.0879999999998135 0.0 0.0
0.08899999999981059 0.0 0.0
0.08999999999980766 0.0 0.0
0.09099999999980475 0.0 0.0
0.09199999999980184 0.0 0.0
0.09299999999979891 0.0 0.0
0.093999999999796 0.0 0.0
0.09499999999979307 0.0 0.0
0.09599999999979016 0.0 0.0
0.09699999999978724 0.0 0.0
0.09799999999978432 0.0 0.0
0.0989999999997814 0.0 0.0
0.09999999999977847 0.0 0.0
0.1009999999997756 0.0 0.0
0.1019999999997726 0.0 0.0
0.1029999999997697 0.0 0.0
0.1039999999997668 0.0 0.0
0.1049999999997639 0.0 0.0
0.105999999999761 0.0 0.0
0.106999999999758 0.0 0.0
0.1079999999997551 0.0 0.0
0.1089999999997522 0.0 0.0
0.1099999999997493 0.0 0.0
0.1109999999997464 0.0 0.0
0.1119999999997434 0.0 0.0
0.1129999999997405 0.0 0.0
0.1139999999997376 0.0 0.0
0.1149999999997347 0.0 0.0
0.1159999999997318 0.0 0.0
0.1169999999997288 0.0 0.0
0.1179999999997259 0.0 0.0
0.118999999999723 0.0 0.0
0.1199999999997201 0.0 0.0
0.1209999999997172 0.0 0.0
0.1219999999997143 0.0 0.0
0.1229999999997113 0.0 0.0
0.1239999999997084 0.0 0.0
0.1249999999997055 0.0 0.0
0.1259999999997026 0.0 0.0
0.1269999999996997 0.0 0.0
0.1279999999996967 0.0 0.0
0.1289999999996938 0.0 0.0
0.1299999999996909 0.0 0.0
0.130999999999688 0.0 0.0
0.1319999999996851 0.0 0.0
0.1329999999996822 0.0 0.0
0.1339999999996792 0.0 0.0
0.1349999999996764 0.0 0.0
0.1359999999996734 0.0 0.0
0.1369999999996705 0.0 0.0
0.1379999999996676 0.0 0.0
0.1389999999996647 0.0 0.0
0.1399999999996618 0.0 0.0
0.1409999999996588 0.0 0.0
0.1419999999996559 0.0 0.0
0.142999999999653 0.0 0.0
0.1439999999996501 0.0 0.0
0.1449999999996472 0.0 0.0
0.1459999999996442 0.0 0.0
0.1469999999996414 0.0 0.0
0.1479999999996384 0.0 0.0
0.1489999999996355 0.0 0.0
0.1499999999996326 0.0 0.0
0.1509999999996297 0.0 0.0
0.1519999999996268 0.0 0.0
0.1529999999996239 0.0 0.0
0.1539999999996209 0.0 0.0
0.154999999999618 0.0 0.0
0.1559999999996151 0.0 0.0
0.1569999999996122 0.0 0.0
0.1579999999996093 0.0 0.0
0.1589999999996064 0.0 0.0
0.1599999999996035 0.0 0.0
0.1609999999996005 0.0 0.0
0.1619999999995976 0.0 0.0
0.1629999999995947 0.0 0.0
0.1639999999995918 0.0 0.0
0.1649999999995889 0.0 0.0
0.165999999999586 0.0 0.0
0.1669999999995831 0.0 0.0
0.1679999999995801 0.0 0.0
0.1689999999995772 0.0 0.0
0.1699999999995743 0.0 0.0
0.1709999999995714 0.0 0.0
0.1719999999995685 0.0 0.0
0.1729999999995655 0.0 0.0
0.1739999999995626 0.0 0.0
0.1749999999995597 0.0 0.0
0.1759999999995568 0.0 0.0
0.1769999999995539 0.0 0.0
0.177999999999551 0.0 0.0
0.178999999999548 0.0 0.0
0.1799999999995451 0.0 0.0
0.1809999999995422 0.0 0.0
0.1819999999995393 0.0 0.0
0.1829999999995364 0.0 0.0
0.1839999999995335 0.0 0.0
0.1849999999995305 0.0 0.0
0.1859999999995277 0.0 0.0
0.1869999999995247 0.0 0.0
0.1879999999995218 0.0 0.0
0.1889999999995189 0.0 0.0
0.189999999999516 0.0 0.0
0.1909999999995131 0.0 0.0
0.1919999999995101 0.0 0.0
0.1929999999995072 0.0 0.0
0.1939999999995043 0.0 0.0
0.1949999999995014 0.0 0.0
0.1959999999994985 0.0 0.0
0.1969999999994956 0.0 0.0
0.1979999999994927 0.0 0.0
0.1989999999994897 0.0 0.0
0.1999999999994868 0.0 0.0
0.2009999999994839 0.0 0.0
0.201999999999481 0.0 0.0
0.2029999999994781 0.0 0.0
0.2039999999994752 0.0 0.0
0.2049999999994722 0.0 0.0
0.2059999999994693 0.0 0.0
0.2069999999994664 0.0 0.0
0.2079999999994635 0.0 0.0
0.2089999999994606 0.0 0.0
0.2099999999994577 0.0 0.0
0.2109999999994548 0.0 0.0
0.2119999999994518 0.0 0.0
0.2129999999994489 0.0 0.0
0.213999999999446 0.0 0.0
0.2149999999994431 0.0 0.0
0.2159999999994402 0.0 0.0
0.2169999999994373 0.0 0.0
0.2179999999994343 0.0 0.0
0.2189999999994314 0.0 0.0
0.2199999999994285 0.0 0.0
0.2209999999994256 0.0 0.0
0.2219999999994227 0.0 0.0
0.2229999999994198 0.0 0.0
0.2239999999994168 0.0 0.0
0.2249999999994139 0.0 0.0
0.225999999999411 0.0 0.0
0.2269999999994081 0.0 0.0
0.2279999999994052 0.0 0.0
0.2289999999994023 0.0 0.0
0.2299999999993994 0.0 0.0
0.2309999999993964 0.0 0.0
0.2319999999993935 0.0 0.0
0.2329999999993906 0.0 0.0
0.2339999999993877 0.0 0.0
0.2349999999993848 0.0 0.0
0.2359999999993818 0.0 0.0
0.236999999999379 0.0 0.0
0.237999999999376 0.0 0.0
0.2389999999993731 0.0 0.0
0.2399999999993702 0.0 0.0
0.2409999999993673 0.0 0.0
0.2419999999993644 0.0 0.0
0.2429999999993615 0.0 0.0
0.2439999999993585 0.0 0.0
0.2449999999993556 0.0 0.0
0.2459999999993527 0.0 0.0
0.246999999999351 0.0 0.0
0.2479999999993495 0.0 0.0
0.248999999999348 0.0 0.0
0.2499999999993464 0.0 0.0
0.2509999999993477 0.0 0.0
0.2519999999993489 0.0 0.0
0.2529999999993502 0.0 0.0
0.2539999999993516 0.0 0.0
0.2549999999993542 0.0 0.0
0.2559999999993569 0.0 0.0
0.2569999999993595 0.0 0.0
0.2579999999993621 0.0 0.0
0.2589999999993647 0.0 0.0
0.2599999999993673 0.0 0.0
0.26099999999937 0.0 0.0
0.2619999999993726 0.0 0.0
0.2629999999993753 0.0 0.0
0.2639999999993779 0.0 0.0
0.2649999999993806 0.0 0.0
0.2659999999993832 0.0 0.0
0.2669999999993858 0.0 0.0
0.2679999999993884 0.0 0.0
0.2689999999993911 0.0 0.0
0.2699999999993937 0.0 0.0
0.2709999999993963 0.0 0.0
0.271999999999399 0.0 0.0
0.2729999999994017 0.0 0.0
0.2739999999994043 0.0 0.0
0.2749999999994069 0.0 0.0
0.2759999999994096 0.0 0.0
0.2769999999994122 0.0 0.0
0.2779999999994148 0.0 0.0
0.2789999999994174 0.0 0.0
0.2799999999994201 0.0 0.0
0.2809999999994228 0.0 0.0
0.2819999999994254 0.0 0.0
0.282999999999428 0.0 0.0
0.2839999999994306 0.0 0.0
0.2849999999994333 0.0 0.0
0.2859999999994359 0.0 0.0
0.2869999999994385 0.0 0.0
0.2879999999994411 0.0 0.0
0.2889999999994439 0.0 0.0
0.2899999999994465 0.0 0.0
0.2909999999994491 0.0 0.0
0.2919999999994517 0.0 0.0
0.2929999999994544 0.0 0.0
0.293999999999457 0.0 0.0
0.2949999999994596 0.0 0.0
0.2959999999994622 0.0 0.0
0.2969999999994649 0.0 0.0
0.2979999999994676 0.0 0.0
0.2989999999994702 0.0 0.0
0.2999999999994728 0.0 0.0
0.3009999999994754 0.0 0.0
0.3019999999994781 0.0 0.0
0.3029999999994807 0.0 0.0
0.3039999999994834 0.0 0.0
0.304999999999486 0.0 0.0
0.3059999999994886 0.0 0.0
0.3069999999994913 0.0 0.0
0.3079999999994939 0.0 0.0
0.3089999999994965 0.0 0.0
0.3099999999994992 0.0 0.0
0.3109999999995018 0.0 0.0
0.3119999999995045 0.0 0.0
0.3129999999995071 0.0 0.0
0.3139999999995097 0.0 0.0
0.3149999999995123 0.0 0.0
0.315999999999515 0.0 0.0
0.3169999999995176 0.0 0.0
0.3179999999995203 0.0 0.0
0.3189999999995229 0.0 0.0
0.3199999999995256 0.0 0.0
0.3209999999995282 0.0 0.0
0.3219999999995308 0.0 0.0
0.3229999999995334 0.0 0.0
0.323999999999536 0.0 0.0
0.3249999999995387 0.0 0.0
0.3259999999995414 0.0 0.0
0.326999999999544 0.0 0.0
0.3279999999995466 0.0 0.0
0.3289999999995493 0.0 0.0
0.3299999999995519 0.0 0.0
0.3309999999995545 0.0 0.0
0.3319999999995571 0.0 0.0
0.3329999999995598 0.0 0.0
0.3339999999995625 0.0 0.0
0.3349999999995651 0.0 0.0
0.3359999999995677 0.0 0.0
0.3369999999995703 0.0 0.0
0.337999999999573 0.0 0.0
0.3389999999995756 0.0 0.0
0.3399999999995783 0.0 0.0
0.3409999999995809 0.0 0.0
0.3419999999995835 0.0 0.0
0.3429999999995862 0.0 0.0
0.3439999999995888 0.0 0.0
0.3449999999995914 0.0 0.0
0.345999999999594 0.0 0.0
0.3469999999995967 0.0 0.0
0.3479999999995994 0.0 0.0
0.348999999999602 0.0 0.0
0.3499999999996046 0.0 0.0
0.3509999999996072 0.0 0.0
0.3519999999996099 0.0 0.0
0.3529999999996125 0.0 0.0
0.3539999999996151 0.0 0.0
0.3549999999996178 0.0 0.0
0.3559999999996205 0.0 0.0
0.3569999999996231 0.0 0.0
0.3579999999996257 0.0 0.0
0.3589999999996283 0.0 0.0
0.359999999999631 0.0 0.0
0.3609999999996336 0.0 0.0
0.3619999999996362 0.0 0.0
[...]
POINT_DATA 7930
SCALARS Disp float 2
LOOKUP_TABLE default
0.0 0.002012566532632952
0.0 0.1
0.0 0.1
0.0 0.0
5.141178332754914e-06 0.0
-6.825889638347231e-06 0.0020124868893445814
-1.3587448773829259e-05 0.0020120285449227123
-2.035192116614569e-05 0.0020116559393498017
-2.730611029578506e-05 0.0020112360105884342
-3.4141194319721884e-05 0.002010075239331749
-4.085434814763193e-05 0.002008512201372884
-4.784339111111625e-05 0.0020076974800636643
-5.5065218187024744e-05 0.002006603411272129
-6.187341666208219e-05 0.0020037759217243203
-6.821770406875793e-05 0.0020007171810877498
-7.490500304257872e-05 0.0019995464913453113
-8.254903906177896e-05 0.001998136141932347
-8.972985181984293e-05 0.00199423801038425
-9.593216916708173e-05 0.0019896688533473377
-0.00010235595311811893 0.0019872543942666037
-0.00010972679792426636 0.0019853990619096225
-0.00011708495420882111 0.001980853953160232
-0.00012322548483038507 0.0019752480801413625
-0.00012950401939991485 0.001971969683431108
-0.0001370883872945626 0.0019697323852428082
-0.000144529726419997 0.0019637859566981925
-0.0001505641044792666 0.0019568018634622893
-0.00015667554637502321 0.0019527619721381425
-0.00016424556729752315 0.0019498358572265207
-0.00017193436287087416 0.0019432893950757316
-0.00017804142066757815 0.0019347906774641707
-0.00018426334183453897 0.0019296535701888514
-0.00019176709713774733 0.0019258136962922387
-0.00019928122433507714 0.0019185014119981986
-0.00020543675212817292 0.0019089672208723884
-0.00021142670456460663 0.0019023537592774472
-0.00021870894859668432 0.0018978861627493486
-0.0002264516262989076 0.001889896925727853
-0.00023279010039718126 0.001878899984434431
-0.0002388007479789619 0.0018712743471525019
-0.00024621556255487946 0.0018659505823131002
-0.0002539856635765575 0.0018567641357292162
-0.0002602547828787173 0.0018441712242108317
-0.00026596716174800034 0.0018349699958662875
-0.00027314968902163406 0.0018288942092899029
-0.00028094936294951377 0.0018188954659478212
-0.0002871703252505197 0.0018050683167745015
-0.00029283962353440735 0.0017948629683923018
-0.00029999354796018745 0.0017880304195131368
-0.000308050395672456 0.0017773868110285127
-0.00031466422839337846 0.0017620336647417544
-0.00032006247247531573 0.001749662257007502
-0.0003270100482429509 0.0017416833043698975
-0.0003351350512630558 0.001730040764901643
-0.0003418063224551291 0.001713460932452346
-0.00034723903756402156 0.0016996857457982455
-0.00035418690640319787 0.0016904238920598751
-0.0003626500477834696 0.0016779363239916448
-0.00036970276604941 0.0016593477431333583
-0.00037497957736361493 0.001643637338298779
-0.0003816776539881288 0.0016329018266933487
-0.00038997457055765225 0.0016189761155582546
-0.00039722926333543606 0.0015988650612439362
-0.00040252740804557017 0.001580791684803871
-0.00040913654540900615 0.001568099566505186
-0.0004173169863995805 0.001552861253881379
-0.000424299242334056 0.0015312081600349567
-0.00042982285968930033 0.0015113053027127352
-0.00043639614446128476 0.0014967595479507612
-0.00044495346304562056 0.0014796213699511992
-0.00045223138916576313 0.0014555230043504285
-0.00045768377849858603 0.0014325164574179885
-0.00046389126015577883 0.0014153861336003723
-0.0004721548849946954 0.001396164318714672
-0.00047934984604691043 0.0013697041897719326
-0.00048470770347819737 0.0013437515539123249
-0.000490699109764504 0.0013241054461636504
-0.0004987317128351409 0.0013027684937943218
-0.0005062632874573136 0.0012737642089838946
-0.0005116894713153501 0.0012445551308396601
-0.0005176607358985503 0.0012214820800305766
-0.0005260899976035025 0.0011969108756813987
-0.0005336260069216587 0.0011638770758012269
-0.000538919947806983 0.0011298315938332217
-0.0005443886143634444 0.0011020195303773914
-0.0005525908724983708 0.0010731218668331302
-0.0005606873355015134 0.0010355353821068323
-0.0005662918867554095 0.0009955210396598551
-0.0005721384915989339 0.0009612782424344464
-0.0005796516404323407 0.0009262008492688337
-0.0005877692564315414 0.0008808024909116182
-0.0005935549767088374 0.0008315246722312934
-0.0005990534293211419 0.0007872804810138133
-0.0006076682980835789 0.0007406855088511355
-0.0006154588822136581 0.0006818544504633313
-0.0006215008577198267 0.0006154857079189261
-0.0006274467057165194 0.0005480895590820969
-0.0006328879039505459 0.0004732053487958565
-0.0006387067339802691 0.00037215126899504643
-0.0006306554531835487 0.00023516692869073275
-0.0005988669990645072 0.0
-0.000551466101860281 0.0
-0.0005206931791243934 0.0
-0.0004957529928738574 0.0
-0.0004751726244485521 0.0
-0.0004583019053105209 0.0
-0.00044347370844685777 0.0
-0.0004303210046678406 0.0
-0.000418509223041043 0.0
-0.00040766044810297677 0.0
-0.0003974722598166642 0.0
-0.00038809059974744 0.0
-0.0003795076413155785 0.0
-0.00037107865138697973 0.0
-0.00036327144324504703 0.0
-0.00035592051456991345 0.0
-0.00034887891105776536 0.0
-0.00034218706771124165 0.0
-0.00033580187077762746 0.0
-0.0003296485223867757 0.0
-0.00032375664164097394 0.0
-0.0003181147669371501 0.0
-0.0003126898765852642 0.0
-0.0003075208138168213 0.0
-0.00030239815437753625 0.0
-0.0002975366186047625 0.0
-0.0002928115714775579 0.0
-0.00028826844352591895 0.0
-0.0002838253297210612 0.0
-0.00027954784991204786 0.0
-0.0002753962214459769 0.0
-0.00027136639332590986 0.0
-0.00026745210074416534 0.0
-0.0002636553332669215 0.0
-0.00025996578625999984 0.0
-0.0002563748684864254 0.0
-0.0002528759210692286 0.0
-0.0002494820889097102 0.0
-0.0002461912028504525 0.0
-0.00024293803373696317 0.0
-0.0002397886199484562 0.0
-0.00023670146860668028 0.0
-0.0002336875603026426 0.0
-0.00023073655912463694 0.0
-0.00022784932950315208 0.0
-0.00022502749101493584 0.0
-0.00022226767279699358 0.0
-0.00021956612777127265 0.0
-0.00021691424778718532 0.0
-0.00021432041147596587 0.0
-0.0002117818951149736 0.0
-0.00020929291044053126 0.0
-0.00020685739334996988 0.0
-0.000204470333916821 0.0
-0.00020212701554681744 0.0
-0.00019982918891746975 0.0
-0.00019757547717161585 0.0
-0.00019536023235333476 0.0
-0.000193182957298573 0.0
-0.00019104687751764576 0.0
-0.0001889535202695841 0.0
-0.0001868769334625426 0.0
-0.00018485110015708693 0.0
-0.0001828514161689671 0.0
-0.0001808822964445809 0.0
-0.00017894966572532122 0.0
-0.00017702680826969206 0.0
-0.00017514834760664082 0.0
-0.00017329563020583095 0.0
-0.00017146877742346862 0.0
-0.00016967078565461091 0.0
-0.0001678994818661657 0.0
-0.00016615403807739045 0.0
-0.00016443352981581865 0.0
-0.0001627393178131015 0.0
-0.00016106970149749482 0.0
-0.00015942223802464008 0.0
-0.0001578016456477291 0.0
-0.00015620709016688858 0.0
-0.00015463417200249678 0.0
-0.0001530826713963994 0.0
-0.00015155432963047505 0.0
-0.00015004900803836189 0.0
-0.00014856086618597077 0.0
-0.0001470924683454672 0.0
-0.00014564475436006755 0.0
-0.0001442141597055509 0.0
-0.00014280051428880826 0.0
-0.00014140463018139906 0.0
-0.00014002772468940094 0.0
-0.00013866547098045868 0.0
-0.00013732000316687054 0.0
-0.00013599073215841116 0.0
-0.00013467695895716796 0.0
-0.00013337986539340379 0.0
-0.00013209963962310974 0.0
-0.00013083349806435017 0.0
-0.00012958278572375504 0.0
-0.0001283463996050845 0.0
-0.0001271248508174318 0.0
-0.00012591942444227684 0.0
-0.00012472728097999677 0.0
-0.00012354771267271633 0.0
-0.00012238309116419782 0.0
-0.00012122998840047909 0.0
-0.00012008972194950092 0.0
-0.00011896291963057075 0.0
-0.0001178481003513212 0.0
-0.00011674417749904834 0.0
-0.00011565412814826217 0.0
-0.00011457121558664494 0.0
-0.00011349955874883707 0.0
-0.0001124389682193078 0.0
-0.00011139036196343548 0.0
-0.00011035169649422264 0.0
-0.00010932355949450831 0.0
-0.00010830634609360115 0.0
-0.00010729875343245326 0.0
-0.00010630138807817235 0.0
-0.00010531784823962084 0.0
-0.0001043389563598904 0.0
-0.00010337285938824187 0.0
-0.00010241766755073641 0.0
-0.00010147130165936588 0.0
-0.00010053514686821056 0.0
-9.960919215898577e-05 0.0
-9.869284479402995e-05 0.0
-9.778576765314666e-05 0.0
-9.68884262005813e-05 0.0
-9.600053358812371e-05 0.0
-9.512145546048417e-05 0.0
-9.42520295914792e-05 0.0
-9.339122203074133e-05 0.0
-9.2539002017963e-05 0.0
-9.169583273606807e-05 0.0
-9.086042499098627e-05 0.0
-9.003258680051854e-05 0.0
-8.921330596972091e-05 0.0
-8.840207748806712e-05 0.0
-8.759766246133867e-05 0.0
-8.680172278355855e-05 0.0
-8.60127774741771e-05 0.0
-8.523149256467696e-05 0.0
-8.445734958709406e-05 0.0
-8.368993451759457e-05 0.0
-8.29290087166567e-05 0.0
-8.217453164088862e-05 0.0
-8.14267431208204e-05 0.0
-8.0684640956895e-05 0.0
-7.994875088130261e-05 0.0
-7.921976848612795e-05 0.0
-7.849566795085271e-05 0.0
-7.777718912434426e-05 0.0
-7.706505563723304e-05 0.0
-7.635826493158279e-05 0.0
-7.565705056423657e-05 0.0
-7.496125845779305e-05 0.0
-7.427037160041073e-05 0.0
-7.358496107186985e-05 0.0
-7.290532969026289e-05 0.0
-7.22305943628926e-05 0.0
-7.156122180429648e-05 0.0
-7.089713056026942e-05 0.0
-7.02385570586623e-05 0.0
-6.958548784107454e-05 0.0
-6.893782223282364e-05 0.0
-6.829534805880398e-05 0.0
-6.76579776208087e-05 0.0
-6.702610361216388e-05 0.0
-6.639928548096965e-05 0.0
-6.577789666116954e-05 0.0
-6.516181913384918e-05 0.0
-6.455082098756348e-05 0.0
-6.394319587499782e-05 0.0
-6.33427190805327e-05 0.0
-6.274499442620954e-05 0.0
-6.215357402283277e-05 0.0
-6.156479358642357e-05 0.0
-6.09806381700519e-05 0.0
-6.040071412309709e-05 0.0
-5.9824936168311195e-05 0.0
-5.925314376216357e-05 0.0
-5.86850349075973e-05 0.0
-5.8120765370439185e-05 0.0
-5.756036412752855e-05 0.0
-5.700343076637508e-05 0.0
-5.6449857588850744e-05 0.0
-5.590005339951203e-05 0.0
-5.535391724628253e-05 0.0
-5.4811207197989906e-05 0.0
-5.427222578744395e-05 0.0
-5.373716540687218e-05 0.0
-5.320607507124494e-05 0.0
-5.267912499782412e-05 0.0
-5.2154315820793104e-05 0.0
-5.1634884954648983e-05 0.0
-5.1119524702891124e-05 0.0
-5.060841498941721e-05 0.0
-5.010254736959245e-05 0.0
-4.959944700424934e-05 0.0
-4.9101034412499546e-05 0.0
-4.8607236365034076e-05 0.0
-4.8117998824080594e-05 0.0
-4.7632911027570976e-05 0.0
-4.7152120131184126e-05 0.0
-4.667541821975771e-05 0.0
-4.620304498476549e-05 0.0
-4.573463111541872e-05 0.0
-4.527008826210541e-05 0.0
-4.480941460562838e-05 0.0
-4.435252585954461e-05 0.0
-4.389925229930794e-05 0.0
-4.344783290821344e-05 0.0
-4.300038058511728e-05 0.0
-4.255605290529134e-05 0.0
-4.211469345482835e-05 0.0
-4.1676885007887875e-05 0.0
-4.1240007291771656e-05 0.0
-4.0805779569019655e-05 0.0
-4.037413726232631e-05 0.0
-3.994487782856795e-05 0.0
-3.9517714890235545e-05 0.0
-3.909317881232686e-05 0.0
-3.8670750796451974e-05 0.0
-3.825064920960462e-05 0.0
-3.7832637306380744e-05 0.0
-3.741690239601984e-05 0.0
-3.7003540086174674e-05 0.0
-3.6592329131118394e-05 0.0
-3.6183648024886616e-05 0.0
-3.577781214294667e-05 0.0
-3.537425361200485e-05 0.0
-3.497327498114909e-05 0.0
-3.457526908700775e-05 0.0
-3.418008924050644e-05 0.0
-3.3787615019150665e-05 0.0
-3.3398182605886034e-05 0.0
-3.3011557424986194e-05 0.0
-3.26280626454123e-05 0.0
-3.224752062503372e-05 0.0
-3.186988714596732e-05 0.0
-3.149510934438909e-05 0.0
-3.112323374573591e-05 0.0
-3.075441985212391e-05 0.0
-3.0388469471185507e-05 0.0
-3.0025200951762664e-05 0.0
-2.966451635028793e-05 0.0
-2.9306513440570513e-05 0.0
-2.8951041581515992e-05 0.0
-2.859785163845483e-05 0.0
-2.8247101130831817e-05 0.0
-2.7898633912789166e-05 0.0
-2.755232701197092e-05 0.0
-2.720799976914714e-05 0.0
-2.6865649790953074e-05 0.0
-2.6525209189859124e-05 0.0
-2.6186484112191395e-05 0.0
-2.5849639940459594e-05 0.0
-2.551446023330131e-05 0.0
-2.51809062725348e-05 0.0
-2.484896171183494e-05 0.0
-2.4518728022308035e-05 0.0
-2.4190210597139097e-05 0.0
-2.3863313662547153e-05 0.0
-2.353807718042108e-05 0.0
-2.321460315492072e-05 0.0
-2.2892898541265634e-05 0.0
-2.257306458105183e-05 0.0
-2.2255139751453458e-05 0.0
-2.1939154000324416e-05 0.0
-2.162516048048232e-05 0.0
-2.131331249475846e-05 0.0
-2.100367358326907e-05 0.0
-2.0696339789355225e-05 0.0
-2.0390573222182316e-05 0.0
-2.0087517819010987e-05 0.0
-1.9786898840965633e-05 0.0
-1.9488679555953095e-05 0.0
-1.9192893723826494e-05 0.0
-1.889958242441285e-05 0.0
-1.860871599458324e-05 0.0
-1.832027572129749e-05 0.0
-1.8034330564309487e-05 0.0
-1.7750627465748005e-05 0.0
-1.74693861889911e-05 0.0
-1.719061015691647e-05 0.0
-1.6914048518955134e-05 0.0
-1.663967948804808e-05 0.0
-1.63676419320844e-05 0.0
-1.6097569964026075e-05 0.0
-1.5829533956366315e-05 0.0
-1.556341900852792e-05 0.0
-1.5299196520227873e-05 0.0
-1.5036703201946613e-05 0.0
-1.4775926115597146e-05 0.0
-1.451681860678912e-05 0.0
-1.4259192780857386e-05 0.0
-1.4003049423704717e-05 0.0
-1.3748346344654233e-05 0.0
-1.3495026042808191e-05 0.0
-1.324296937509632e-05 0.0
-1.299217820001888e-05 0.0
-1.2742611996610867e-05 0.0
-1.2494149709981702e-05 0.0
-1.2247015423341503e-05 0.0
-1.2001029346593744e-05 0.0
-1.1756184130223905e-05 0.0
-1.1512584358266297e-05 0.0
-1.1270258143194541e-05 0.0
-1.102911529643621e-05 0.0
-1.0789215463689387e-05 0.0
-1.0550654977699444e-05 0.0
-1.0313504256282652e-05 0.0
-1.0077676859336649e-05 0.0
-9.8433038372184e-06 0.0
-9.610355675215862e-06 0.0
-9.378887487545433e-06 0.0
-9.149132615430659e-06 0.0
-8.921113079241391e-06 0.0
-8.69475494113363e-06 0.0
-8.470210814053414e-06 0.0
-8.247478947513613e-06 0.0
-8.026531199555206e-06 0.0
-7.807481683852193e-06 0.0
-7.590250353056107e-06 0.0
-7.3749815706515e-06 0.0
-7.1617088593664455e-06 0.0
-6.950348706623009e-06 0.0
-6.740825776264219e-06 0.0
-6.533353094203032e-06 0.0
-6.327846596654648e-06 0.0
-6.124223268652881e-06 0.0
-5.922442841908852e-06 0.0
-5.72244854127626e-06 0.0
-5.524292883538836e-06 0.0
-5.327911101438473e-06 0.0
-5.133168783392664e-06 0.0
-4.9400949211602815e-06 0.0
-4.748767344223514e-06 0.0
-4.558767609852424e-06 0.0
-4.3703311387725326e-06 0.0
-4.183347418014839e-06 0.0
-3.997792198109031e-06 0.0
-3.8135128314413042e-06 0.0
-3.630405344569873e-06 0.0
-3.4485794457585906e-06 0.0
-3.2679325687679362e-06 0.0
-3.0884471899399596e-06 0.0
-2.9101263653517183e-06 0.0
-2.732627951455017e-06 0.0
-2.5561982029828642e-06 0.0
-2.380765479232374e-06 0.0
-2.2063029442996456e-06 0.0
-2.032738800257718e-06 0.0
-1.8601601699925731e-06 0.0
-1.6884964430103316e-06 0.0
-1.5177347998039128e-06 0.0
-1.3479170514833485e-06 0.0
-1.1790220984423024e-06 0.0
-1.011137306000025e-06 0.0
-8.442576575840749e-07 0.0
-6.784595519343371e-07 0.0
-5.135618187985867e-07 0.0
-3.4986999432151044e-07 0.0
-1.8731166455890535e-07 0.0
-2.5973981066066997e-08 0.0
1.3419949625502065e-07 0.0
2.931315057093971e-07 0.0
4.5084610131724987e-07 0.0
6.072139393792301e-07 0.0
7.621373516675493e-07 0.0
9.156639903011994e-07 0.0
1.0678562632072275e-06 0.0
1.218573347514504e-06 0.0
1.3678658873961288e-06 0.0
1.5156331520963832e-06 0.0
1.6618874905819716e-06 0.0
1.8065568259021527e-06 0.0
1.9496589787700578e-06 0.0
2.0912339916980205e-06 0.0
2.2311514505792263e-06 0.0
2.3694730361953867e-06 0.0
2.5061896329221583e-06 0.0
2.6413621469246613e-06 0.0
2.774996516228011e-06 0.0
2.907072299562254e-06 0.0
3.037557834543437e-06 0.0
3.1664563261802934e-06 0.0
3.2939896822180083e-06 0.0
3.419944397088167e-06 0.0
3.544390847391576e-06 0.0
3.66739659963905e-06 0.0
3.78882601108511e-06 0.0
3.90900733165141e-06 0.0
4.027808382100086e-06 0.0
4.14519103185893e-06 0.0
4.261189916961194e-06 0.0
4.375950147593391e-06 0.0
4.4893124114030375e-06 0.0
4.601308019824187e-06 0.0
4.711894749303341e-06 0.0
4.821195792652982e-06 0.0
4.92930890359722e-06 0.0
5.035915826900329e-06 0.0
5.248865744251702e-06 0.0
5.3642314860877555e-06 0.0
5.48774130886129e-06 0.0
5.61968926097425e-06 0.0
5.760279870050261e-06 0.0
5.909760033951397e-06 0.0
6.068135442821766e-06 0.0
6.235175404534628e-06 0.0
6.4106055188361045e-06 0.0
6.593735387707067e-06 0.0
6.783437253141391e-06 0.0
6.978818013734594e-06 0.0
7.1771631215295455e-06 0.0
7.377399772607804e-06 0.0
7.5764535701782345e-06 0.0
7.770789515805774e-06 0.0
7.956317270058949e-06 0.0
8.132548656294275e-06 0.0
8.295616459923613e-06 0.0
8.4478077515681e-06 0.0
8.587184226104331e-06 0.0
8.711970229319454e-06 0.0
8.815019850544558e-06 0.0
8.898058089957868e-06 0.0
8.939542450395886e-06 0.0
8.929235620816691e-06 0.0
8.845872183670747e-06 0.0
8.68550136566225e-06 0.0
8.459893330797705e-06 0.0
8.17895733987044e-06 0.0
7.843612350978017e-06 0.0
7.428716488156106e-06 0.0
6.896941067125823e-06 0.0
6.237990470633444e-06 0.0
5.501111072483333e-06 0.0
4.7487555999867745e-06 0.0
3.969183589934275e-06 0.0
3.0792852370542466e-06 0.0
2.0675308535959395e-06 0.0
1.1301000187220501e-06 0.0
4.62803786679428e-07 0.0
1.2850367950641826e-07 0.0
2.445480223801191e-08 0.0
1.8305758580770905e-09 0.0
3.2151412667384725e-11 0.0
-3.4130605858633007e-12 0.0
1.8548085267457854e-13 0.0
4.895570306271931e-13 0.0
3.421644181456995e-13 0.0
-1.4427954254021738e-14 0.0
8.575377350855828e-15 0.0
1.2444630608760937e-14 0.0
3.4069928995670156e-15 0.0
5.608089557749426e-15 0.0
-2.217296028451511e-15 0.0
-3.087612144399919e-15 0.0
-1.1470438144261801e-15 0.0
2.0650097711785916e-16 0.0
3.293941282008982e-16 0.0
3.603894375745691e-16 0.0
-3.078180007516542e-17 0.0
2.484862406887351e-16 0.0
7.666046864581948e-16 0.0
-2.7835623951801228e-18 0.0
-2.2981316346328515e-16 0.0
-6.298265536423352e-16 0.0
-3.9635370301048125e-16 0.0
3.808868262333972e-16 0.0
-1.4555342903833304e-16 0.0
-3.842390553925972e-16 0.0
7.738984301962968e-16 0.0
7.828633489276137e-16 0.0
-1.998256259646207e-15 0.0
7.503005298047148e-16 0.0
2.1779126858501174e-15 0.0
-2.436993919160877e-15 0.0
3.119027151245298e-16 0.0
1.251282537730683e-15 0.0
-1.8211475171579054e-15 0.0
0.0 0.009234165287259712
0.0 0.022109785930463647
0.0 0.040062852071450314
0.0 0.06509563926309311
-2.639443199226624e-15 0.1
-3.537626738502479e-15 0.1
4.0461107183900265e-14 0.1
-4.172914989346149e-14 0.1
0.0 0.09234095951658358
0.0 0.08526779443703514
0.0 0.07873568783499249
0.0 0.07270325358165582
0.0 0.06713226878991037
0.0 0.061987433310915066
0.0 0.05723615233795528
0.0 0.052848316929524644
0.0 0.0487961284499428
0.0 0.04505391065785073
0.0 0.04159795282712763
0.0 0.03840635724257472
0.0 0.0354589017182272
0.0 0.032736910873336626
0.0 0.030223137736035563
0.0 0.02790165483820888
0.0 0.02575775300196212
0.0 0.02377784835211229
0.0 0.021949395807857576
0.0 0.02026081025547594
0.0 0.01870139222549813
0.0 0.017261261589803057
0.0 0.015931293321281712
0.0 0.014703060690046113
0.0 0.013568780159543317
0.0 0.0125212699424323
0.0 0.011553879242450608
0.0 0.010660479223675242
0.0 0.00983554695457339
0.0 0.009072873132805174
0.0 0.008372751268905949
0.0 0.007730855985500139
0.0 0.007142497841852776
0.0 0.006602396134728756
0.0 0.006107919410592302
0.0 0.005656439340296342
0.0 0.0052450815734737186
0.0 0.0048705276599239145
0.0 0.004531325001681986
0.0 0.004222913431078753
0.0 0.003943922484387529
0.0 0.0036920952028231934
0.0 0.0034645641250220078
0.0 0.0032610546026782504
0.0 0.0030798996774296906
0.0 0.002918691984511221
0.0 0.0027764101594497316
0.0 0.002651783758933664
0.0 0.002542861877937393
0.0 0.002449448335521154
0.0 0.0023707245917431977
0.0 0.002303554101334232
0.0 0.002247777861200802
0.0 0.0022026651278374033
0.0 0.0021656723634119876
0.0 0.0021364741669559965
0.0 0.002113949234195293
0.0 0.002097320141806386
0.0 0.0020849338459327745
0.0 0.0020759769121896582
0.0 0.0020693371977428244
0.0 0.0020647901011220976
0.0 0.0020621390592020167
0.0 0.0020595015216340394
0.0 0.0020579986776536633
0.0 0.0020558687148265753
0.0 0.002054228359287874
0.0 0.002052525636247159
0.0 0.0020506638941767174
0.0 0.0020486997940182463
0.0 0.002046458244037798
0.0 0.0020441121867732625
0.0 0.002041574856739139
0.0 0.0020389319924734913
0.0 0.002036137593152126
0.0 0.0020333565209908555
0.0 0.002030558115598507
0.0 0.0020277840198107498
0.0 0.0020250717346374804
0.0 0.002022394819160298
0.0 0.002019807487738548
0.0 0.002017269523013111
0.0 0.0020148740362706413
1.1739112410288135e-05 0.004936485700480608
8.122122434269514e-05 0.0028381553292421403
0.00013146480957760534 0.0018018521326654822
0.00017113874721584753 0.001550750146281836