# vtk DataFile Version 3.0
Some data
ASCII
DATASET UNSTRUCTURED_GRID
POINTS 7930 float
0.0 0.0 0.0
0.0 10.0 0.0
10.0 10.0 0.0
10.0 0.0 0.0
0.5 0.0 0.0
0.0009999999999981016 0.0 0.0
0.001999999999996203 0.0 0.0
0.002999999999994305 0.0 0.0
0.003999999999992409 0.0 0.0
0.004999999999990531 0.0 0.0
0.005999999999988653 0.0 0.0
0.006999999999986775 0.0 0.0
0.007999999999984898 0.0 0.0
0.008999999999983018 0.0 0.0
0.009999999999981142 0.0 0.0
0.01099999999997926 0.0 0.0
0.01199999999997736 0.0 0.0
0.0129999999999754 0.0 0.0
0.01399999999997343 0.0 0.0
0.01499999999997147 0.0 0.0
0.01599999999996944 0.0 0.0
0.0169999999999673 0.0 0.0
0.01799999999996516 0.0 0.0
0.01899999999996302 0.0 0.0
0.01999999999996084 0.0 0.0
0.02099999999995862 0.0 0.0
0.02199999999995639 0.0 0.0
0.02299999999995417 0.0 0.0
0.02399999999995195 0.0 0.0
0.02499999999994972 0.0 0.0
0.0259999999999475 0.0 0.0
0.02699999999994527 0.0 0.0
0.02799999999994315 0.0 0.0
0.0289999999999411 0.0 0.0
0.02999999999993905 0.0 0.0
0.030999999999937 0.0 0.0
0.03199999999993521 0.0 0.0
0.0329999999999335 0.0 0.0
0.0339999999999318 0.0 0.0
0.03499999999993009 0.0 0.0
0.03599999999992853 0.0 0.0
0.036999999999927 0.0 0.0
0.03799999999992547 0.0 0.0
0.03899999999992394 0.0 0.0
0.03999999999992241 0.0 0.0
0.04099999999992088 0.0 0.0
0.04199999999991934 0.0 0.0
0.04299999999991782 0.0 0.0
0.04399999999991629 0.0 0.0
0.04499999999991475 0.0 0.0
0.04599999999991322 0.0 0.0
0.0469999999999117 0.0 0.0
0.04799999999991016 0.0 0.0
0.04899999999990863 0.0 0.0
0.0499999999999071 0.0 0.0
0.05099999999990557 0.0 0.0
0.05199999999990404 0.0 0.0
0.05299999999990251 0.0 0.0
0.05399999999990097 0.0 0.0
0.05499999999989943 0.0 0.0
0.05599999999989791 0.0 0.0
0.05699999999989638 0.0 0.0
0.05799999999989484 0.0 0.0
0.05899999999989317 0.0 0.0
0.05999999999989129 0.0 0.0
0.06099999999988941 0.0 0.0
0.06199999999988753 0.0 0.0
0.06299999999988531 0.0 0.0
0.06399999999988273 0.0 0.0
0.06499999999988015 0.0 0.0
0.06599999999987759 0.0 0.0
0.0669999999998748 0.0 0.0
0.06799999999987189 0.0 0.0
0.06899999999986897 0.0 0.0
0.06999999999986604 0.0 0.0
0.07099999999986313 0.0 0.0
0.0719999999998602 0.0 0.0
0.07299999999985729 0.0 0.0
0.07399999999985438 0.0 0.0
0.07499999999985145 0.0 0.0
0.07599999999984854 0.0 0.0
0.07699999999984562 0.0 0.0
0.0779999999998427 0.0 0.0
0.07899999999983978 0.0 0.0
0.07999999999983685 0.0 0.0
0.08099999999983394 0.0 0.0
0.08199999999983103 0.0 0.0
0.0829999999998281 0.0 0.0
0.08399999999982519 0.0 0.0
0.08499999999982226 0.0 0.0
0.08599999999981935 0.0 0.0
0.08699999999981643 0.0 0.0
0.0879999999998135 0.0 0.0
0.08899999999981059 0.0 0.0
0.08999999999980766 0.0 0.0
0.09099999999980475 0.0 0.0
0.09199999999980184 0.0 0.0
0.09299999999979891 0.0 0.0
0.093999999999796 0.0 0.0
0.09499999999979307 0.0 0.0
0.09599999999979016 0.0 0.0
0.09699999999978724 0.0 0.0
0.09799999999978432 0.0 0.0
0.0989999999997814 0.0 0.0
0.09999999999977847 0.0 0.0
0.1009999999997756 0.0 0.0
0.1019999999997726 0.0 0.0
0.1029999999997697 0.0 0.0
0.1039999999997668 0.0 0.0
0.1049999999997639 0.0 0.0
0.105999999999761 0.0 0.0
0.106999999999758 0.0 0.0
0.1079999999997551 0.0 0.0
0.1089999999997522 0.0 0.0
0.1099999999997493 0.0 0.0
0.1109999999997464 0.0 0.0
0.1119999999997434 0.0 0.0
0.1129999999997405 0.0 0.0
0.1139999999997376 0.0 0.0
0.1149999999997347 0.0 0.0
0.1159999999997318 0.0 0.0
0.1169999999997288 0.0 0.0
0.1179999999997259 0.0 0.0
0.118999999999723 0.0 0.0
0.1199999999997201 0.0 0.0
0.1209999999997172 0.0 0.0
0.1219999999997143 0.0 0.0
0.1229999999997113 0.0 0.0
0.1239999999997084 0.0 0.0
0.1249999999997055 0.0 0.0
0.1259999999997026 0.0 0.0
0.1269999999996997 0.0 0.0
0.1279999999996967 0.0 0.0
0.1289999999996938 0.0 0.0
0.1299999999996909 0.0 0.0
0.130999999999688 0.0 0.0
0.1319999999996851 0.0 0.0
0.1329999999996822 0.0 0.0
0.1339999999996792 0.0 0.0
0.1349999999996764 0.0 0.0
0.1359999999996734 0.0 0.0
0.1369999999996705 0.0 0.0
0.1379999999996676 0.0 0.0
0.1389999999996647 0.0 0.0
0.1399999999996618 0.0 0.0
0.1409999999996588 0.0 0.0
0.1419999999996559 0.0 0.0
0.142999999999653 0.0 0.0
0.1439999999996501 0.0 0.0
0.1449999999996472 0.0 0.0
0.1459999999996442 0.0 0.0
0.1469999999996414 0.0 0.0
0.1479999999996384 0.0 0.0
0.1489999999996355 0.0 0.0
0.1499999999996326 0.0 0.0
0.1509999999996297 0.0 0.0
0.1519999999996268 0.0 0.0
0.1529999999996239 0.0 0.0
0.1539999999996209 0.0 0.0
0.154999999999618 0.0 0.0
0.1559999999996151 0.0 0.0
0.1569999999996122 0.0 0.0
0.1579999999996093 0.0 0.0
0.1589999999996064 0.0 0.0
0.1599999999996035 0.0 0.0
0.1609999999996005 0.0 0.0
0.1619999999995976 0.0 0.0
0.1629999999995947 0.0 0.0
0.1639999999995918 0.0 0.0
0.1649999999995889 0.0 0.0
0.165999999999586 0.0 0.0
0.1669999999995831 0.0 0.0
0.1679999999995801 0.0 0.0
0.1689999999995772 0.0 0.0
0.1699999999995743 0.0 0.0
0.1709999999995714 0.0 0.0
0.1719999999995685 0.0 0.0
0.1729999999995655 0.0 0.0
0.1739999999995626 0.0 0.0
0.1749999999995597 0.0 0.0
0.1759999999995568 0.0 0.0
0.1769999999995539 0.0 0.0
0.177999999999551 0.0 0.0
0.178999999999548 0.0 0.0
0.1799999999995451 0.0 0.0
0.1809999999995422 0.0 0.0
0.1819999999995393 0.0 0.0
0.1829999999995364 0.0 0.0
0.1839999999995335 0.0 0.0
0.1849999999995305 0.0 0.0
0.1859999999995277 0.0 0.0
0.1869999999995247 0.0 0.0
0.1879999999995218 0.0 0.0
0.1889999999995189 0.0 0.0
0.189999999999516 0.0 0.0
0.1909999999995131 0.0 0.0
0.1919999999995101 0.0 0.0
0.1929999999995072 0.0 0.0
0.1939999999995043 0.0 0.0
0.1949999999995014 0.0 0.0
0.1959999999994985 0.0 0.0
0.1969999999994956 0.0 0.0
0.1979999999994927 0.0 0.0
0.1989999999994897 0.0 0.0
0.1999999999994868 0.0 0.0
0.2009999999994839 0.0 0.0
0.201999999999481 0.0 0.0
0.2029999999994781 0.0 0.0
0.2039999999994752 0.0 0.0
0.2049999999994722 0.0 0.0
0.2059999999994693 0.0 0.0
0.2069999999994664 0.0 0.0
0.2079999999994635 0.0 0.0
0.2089999999994606 0.0 0.0
0.2099999999994577 0.0 0.0
0.2109999999994548 0.0 0.0
0.2119999999994518 0.0 0.0
0.2129999999994489 0.0 0.0
0.213999999999446 0.0 0.0
0.2149999999994431 0.0 0.0
0.2159999999994402 0.0 0.0
0.2169999999994373 0.0 0.0
0.2179999999994343 0.0 0.0
0.2189999999994314 0.0 0.0
0.2199999999994285 0.0 0.0
0.2209999999994256 0.0 0.0
0.2219999999994227 0.0 0.0
0.2229999999994198 0.0 0.0
0.2239999999994168 0.0 0.0
0.2249999999994139 0.0 0.0
0.225999999999411 0.0 0.0
0.2269999999994081 0.0 0.0
0.2279999999994052 0.0 0.0
0.2289999999994023 0.0 0.0
0.2299999999993994 0.0 0.0
0.2309999999993964 0.0 0.0
0.2319999999993935 0.0 0.0
0.2329999999993906 0.0 0.0
0.2339999999993877 0.0 0.0
0.2349999999993848 0.0 0.0
0.2359999999993818 0.0 0.0
0.236999999999379 0.0 0.0
0.237999999999376 0.0 0.0
0.2389999999993731 0.0 0.0
0.2399999999993702 0.0 0.0
0.2409999999993673 0.0 0.0
0.2419999999993644 0.0 0.0
0.2429999999993615 0.0 0.0
0.2439999999993585 0.0 0.0
0.2449999999993556 0.0 0.0
0.2459999999993527 0.0 0.0
0.246999999999351 0.0 0.0
0.2479999999993495 0.0 0.0
0.248999999999348 0.0 0.0
0.2499999999993464 0.0 0.0
0.2509999999993477 0.0 0.0
0.2519999999993489 0.0 0.0
0.2529999999993502 0.0 0.0
0.2539999999993516 0.0 0.0
0.2549999999993542 0.0 0.0
0.2559999999993569 0.0 0.0
0.2569999999993595 0.0 0.0
0.2579999999993621 0.0 0.0
0.2589999999993647 0.0 0.0
0.2599999999993673 0.0 0.0
0.26099999999937 0.0 0.0
0.2619999999993726 0.0 0.0
0.2629999999993753 0.0 0.0
0.2639999999993779 0.0 0.0
0.2649999999993806 0.0 0.0
0.2659999999993832 0.0 0.0
0.2669999999993858 0.0 0.0
0.2679999999993884 0.0 0.0
0.2689999999993911 0.0 0.0
0.2699999999993937 0.0 0.0
0.2709999999993963 0.0 0.0
0.271999999999399 0.0 0.0
0.2729999999994017 0.0 0.0
0.2739999999994043 0.0 0.0
0.2749999999994069 0.0 0.0
0.2759999999994096 0.0 0.0
0.2769999999994122 0.0 0.0
0.2779999999994148 0.0 0.0
0.2789999999994174 0.0 0.0
0.2799999999994201 0.0 0.0
0.2809999999994228 0.0 0.0
0.2819999999994254 0.0 0.0
0.282999999999428 0.0 0.0
0.2839999999994306 0.0 0.0
0.2849999999994333 0.0 0.0
0.2859999999994359 0.0 0.0
0.2869999999994385 0.0 0.0
0.2879999999994411 0.0 0.0
0.2889999999994439 0.0 0.0
0.2899999999994465 0.0 0.0
0.2909999999994491 0.0 0.0
0.2919999999994517 0.0 0.0
0.2929999999994544 0.0 0.0
0.293999999999457 0.0 0.0
0.2949999999994596 0.0 0.0
0.2959999999994622 0.0 0.0
0.2969999999994649 0.0 0.0
0.2979999999994676 0.0 0.0
0.2989999999994702 0.0 0.0
0.2999999999994728 0.0 0.0
0.3009999999994754 0.0 0.0
0.3019999999994781 0.0 0.0
0.3029999999994807 0.0 0.0
0.3039999999994834 0.0 0.0
0.304999999999486 0.0 0.0
0.3059999999994886 0.0 0.0
0.3069999999994913 0.0 0.0
0.3079999999994939 0.0 0.0
0.3089999999994965 0.0 0.0
0.3099999999994992 0.0 0.0
0.3109999999995018 0.0 0.0
0.3119999999995045 0.0 0.0
0.3129999999995071 0.0 0.0
0.3139999999995097 0.0 0.0
0.3149999999995123 0.0 0.0
0.315999999999515 0.0 0.0
0.3169999999995176 0.0 0.0
0.3179999999995203 0.0 0.0
0.3189999999995229 0.0 0.0
0.3199999999995256 0.0 0.0
0.3209999999995282 0.0 0.0
0.3219999999995308 0.0 0.0
0.3229999999995334 0.0 0.0
0.323999999999536 0.0 0.0
0.3249999999995387 0.0 0.0
0.3259999999995414 0.0 0.0
0.326999999999544 0.0 0.0
0.3279999999995466 0.0 0.0
0.3289999999995493 0.0 0.0
0.3299999999995519 0.0 0.0
0.3309999999995545 0.0 0.0
0.3319999999995571 0.0 0.0
0.3329999999995598 0.0 0.0
0.3339999999995625 0.0 0.0
0.3349999999995651 0.0 0.0
0.3359999999995677 0.0 0.0
0.3369999999995703 0.0 0.0
0.337999999999573 0.0 0.0
0.3389999999995756 0.0 0.0
0.3399999999995783 0.0 0.0
0.3409999999995809 0.0 0.0
0.3419999999995835 0.0 0.0
0.3429999999995862 0.0 0.0
0.3439999999995888 0.0 0.0
0.3449999999995914 0.0 0.0
0.345999999999594 0.0 0.0
0.3469999999995967 0.0 0.0
0.3479999999995994 0.0 0.0
0.348999999999602 0.0 0.0
0.3499999999996046 0.0 0.0
0.3509999999996072 0.0 0.0
0.3519999999996099 0.0 0.0
0.3529999999996125 0.0 0.0
0.3539999999996151 0.0 0.0
0.3549999999996178 0.0 0.0
0.3559999999996205 0.0 0.0
0.3569999999996231 0.0 0.0
0.3579999999996257 0.0 0.0
0.3589999999996283 0.0 0.0
0.359999999999631 0.0 0.0
0.3609999999996336 0.0 0.0
0.3619999999996362 0.0 0.0
[...]
POINT_DATA 7930
SCALARS Disp float 2
LOOKUP_TABLE default
0.0 9.931005140459721e-05
0.0 0.1
0.0 0.1
0.0 0.0
1.372529777549276e-17 0.0
-7.122962388623577e-06 9.732137494747313e-05
-1.4054751250935492e-05 8.967312427194673e-05
-1.9894409677779523e-05 7.545904293830028e-05
-2.4245747851065674e-05 5.08620405040705e-05
-2.116534243783576e-05 0.0
-1.5044849399226152e-05 0.0
-1.0962907626879424e-05 0.0
-8.580786158884191e-06 0.0
-6.731099866334597e-06 0.0
-5.498034838205377e-06 0.0
-4.3998252089864975e-06 0.0
-3.5564010714096147e-06 0.0
-2.907039996359371e-06 0.0
-2.3704802776794686e-06 0.0
-1.9183054921427474e-06 0.0
-1.547071954052283e-06 0.0
-1.231643347542142e-06 0.0
-9.725929075309882e-07 0.0
-7.588356707139395e-07 0.0
-5.830227700443366e-07 0.0
-4.315630721838926e-07 0.0
-3.101083152622781e-07 0.0
-2.1259627408729942e-07 0.0
-1.3447250298068962e-07 0.0
-7.353145504697117e-08 0.0
-2.2688548919220378e-08 0.0
1.6369707823117958e-08 0.0
4.658386839533647e-08 0.0
6.907382140424966e-08 0.0
8.54457404057345e-08 0.0
9.69984700398128e-08 0.0
1.0441599565906903e-07 0.0
1.0868614667851586e-07 0.0
1.1002475881174077e-07 0.0
1.0937744252272483e-07 0.0
1.0742960881788616e-07 0.0
1.0424296453839372e-07 0.0
1.0021025968284159e-07 0.0
9.552278179198846e-08 0.0
9.044862232091888e-08 0.0
8.513782305966011e-08 0.0
7.973355064198051e-08 0.0
7.434598229412512e-08 0.0
6.908861517184705e-08 0.0
6.396434101871038e-08 0.0
5.903929500087436e-08 0.0
5.432761987071369e-08 0.0
4.985174404521304e-08 0.0
4.564406380080671e-08 0.0
4.170209928855335e-08 0.0
3.8027112056987897e-08 0.0
3.4611350450565297e-08 0.0
3.144661611904689e-08 0.0
2.8537928981007567e-08 0.0
2.585237003383613e-08 0.0
2.338555536755434e-08 0.0
2.1129460109423248e-08 0.0
1.9068940030915076e-08 0.0
1.718725744084994e-08 0.0
1.5473405784054435e-08 0.0
1.3917495582078385e-08 0.0
1.250437245988229e-08 0.0
1.1223233563885954e-08 0.0
1.0064291623643532e-08 0.0
9.019253961155135e-09 0.0
8.076589004854083e-09 0.0
7.2264616627015845e-09 0.0
6.460535995215345e-09 0.0
5.772338787381024e-09 0.0
5.155267550467291e-09 0.0
4.601693114894674e-09 0.0
4.104517446190211e-09 0.0
3.658339726252228e-09 0.0
3.25880072736542e-09 0.0
2.901629007116673e-09 0.0
2.5821340159495672e-09 0.0
2.2968144831221764e-09 0.0
2.0410518790433207e-09 0.0
1.8136887405081428e-09 0.0
1.611385209018103e-09 0.0
1.4306601533385396e-09 0.0
1.2697424846637323e-09 0.0
1.1266435014623154e-09 0.0
9.986542084197248e-10 0.0
8.848104890510825e-10 0.0
7.840538073955298e-10 0.0
6.944799497247025e-10 0.0
6.149314853110453e-10 0.0
5.442865806206678e-10 0.0
4.815849404418611e-10 0.0
4.261647111164268e-10 0.0
3.768497718587593e-10 0.0
3.331137227294063e-10 0.0
2.9432718063185376e-10 0.0
2.598586549814593e-10 0.0
2.2946217340157487e-10 0.0
2.0259448245036666e-10 0.0
1.789065374312669e-10 0.0
1.580313948469988e-10 0.0
1.3937298272518452e-10 0.0
1.229636207707224e-10 0.0
1.0840840335347503e-10 0.0
9.554383611978045e-11 0.0
8.41904699551712e-11 0.0
7.420761579463247e-11 0.0
6.537494874499475e-11 0.0
5.759531107387643e-11 0.0
5.0695571012383714e-11 0.0
4.463259827994659e-11 0.0
3.927654213136099e-11 0.0
3.456246684657196e-11 0.0
3.0410376088413625e-11 0.0
2.6745431303770745e-11 0.0
2.3514652433664027e-11 0.0
2.0681560156960257e-11 0.0
1.818721220019322e-11 0.0
1.5987871896849554e-11 0.0
1.4047075053315208e-11 0.0
1.2341323992921597e-11 0.0
1.0865875383709005e-11 0.0
9.529995311795178e-12 0.0
8.366096774423078e-12 0.0
7.344972141837178e-12 0.0
6.452019648858477e-12 0.0
5.658131701872277e-12 0.0
4.9649275244597954e-12 0.0
4.359862634471188e-12 0.0
3.824640331773072e-12 0.0
3.3547487505004884e-12 0.0
2.9411879953312884e-12 0.0
2.5789770754678517e-12 0.0
2.2609355745630795e-12 0.0
1.981751386175312e-12 0.0
1.737301363821536e-12 0.0
1.5229625668378655e-12 0.0
1.333519232521788e-12 0.0
1.1685837855182229e-12 0.0
1.0237010613752048e-12 0.0
8.965674293561296e-13 0.0
7.850085754448498e-13 0.0
6.873562334225156e-13 0.0
6.017698096696124e-13 0.0
5.268807476668986e-13 0.0
4.611696482057829e-13 0.0
4.0358201132588935e-13 0.0
3.5335597416175617e-13 0.0
3.0939225999470035e-13 0.0
2.706169903691906e-13 0.0
2.366202016239013e-13 0.0
2.0702696272602018e-13 0.0
1.8107743554042307e-13 0.0
1.5839044935062382e-13 0.0
1.3852126482237813e-13 0.0
1.2107739006619798e-13 0.0
1.0583271920299081e-13 0.0
9.240335950332996e-14 0.0
8.096254798681514e-14 0.0
7.064815933141531e-14 0.0
6.172371213428204e-14 0.0
5.394603783482775e-14 0.0
4.7095290949893277e-14 0.0
4.123077863401878e-14 0.0
3.595554406273545e-14 0.0
3.139356919079183e-14 0.0
2.742897293303672e-14 0.0
2.3955392228039874e-14 0.0
2.092230693315292e-14 0.0
1.8266124447021e-14 0.0
1.594502161302539e-14 0.0
1.3920017548585371e-14 0.0
1.214672532642301e-14 0.0
1.060572412788894e-14 0.0
9.258976528664024e-15 0.0
8.07867330338872e-15 0.0
7.047267957488075e-15 0.0
6.149520143211265e-15 0.0
5.3663376072814086e-15 0.0
4.6799189523904615e-15 0.0
4.0821830605290455e-15 0.0
3.561558103874924e-15 0.0
3.105254375513491e-15 0.0
2.708680069715277e-15 0.0
2.3641056943146156e-15 0.0
2.0620781764056536e-15 0.0
1.79719777497869e-15 0.0
1.5673008123504778e-15 0.0
1.3665008071015429e-15 0.0
1.191504079159699e-15 0.0
1.0395192776793717e-15 0.0
9.063113983024994e-16 0.0
7.900235966796396e-16 0.0
6.888618503539884e-16 0.0
6.006583683172257e-16 0.0
5.236220914682509e-16 0.0
4.568716332916082e-16 0.0
3.986112201521178e-16 0.0
3.4760180530672873e-16 0.0
3.03415526613909e-16 0.0
2.6472886796135566e-16 0.0
2.31133031663554e-16 0.0
2.0183501997912595e-16 0.0
1.7618794276666105e-16 0.0
1.5397091218212364e-16 0.0
1.3468244321002634e-16 0.0
1.1783863106338683e-16 0.0
1.0321853828797942e-16 0.0
9.049330189141515e-17 0.0
7.938671043298776e-17 0.0
6.97090964846061e-17 0.0
6.129890037831619e-17 0.0
5.4007181670213734e-17 0.0
4.764517151695464e-17 0.0
4.2100107756135434e-17 0.0
3.72914158697768e-17 0.0
3.308569552145033e-17 0.0
2.944013982475053e-17 0.0
2.6265821052697956e-17 0.0
2.3510040692358408e-17 0.0
2.1117253514308123e-17 0.0
1.9036020959419263e-17 0.0
1.7228384734952664e-17 0.0
1.565327492793462e-17 0.0
1.4277025599068944e-17 0.0
1.30773342480635e-17 0.0
1.2033634689496923e-17 0.0
1.1136770377358295e-17 0.0
1.0358053090197498e-17 0.0
9.682354903420895e-18 0.0
9.10256532307407e-18 0.0
8.59491926346674e-18 0.0
8.156904061186873e-18 0.0
7.77847020135496e-18 0.0
7.448770410453009e-18 0.0
7.164863122161427e-18 0.0
6.921568419537583e-18 0.0
6.71536983915886e-18 0.0
6.544359404814427e-18 0.0
6.3996001146552236e-18 0.0
6.278504645864205e-18 0.0
6.1829076362602144e-18 0.0
6.100094318145672e-18 0.0
6.032027019857796e-18 0.0
5.981057963892097e-18 0.0
5.93794260768928e-18 0.0
5.910834456310824e-18 0.0
5.886462643234608e-18 0.0
5.866443471494562e-18 0.0
5.85433714371091e-18 0.0
5.838524566678903e-18 0.0
5.8289891206173704e-18 0.0
5.823750814206188e-18 0.0
5.82847844085091e-18 0.0
5.833122186023826e-18 0.0
5.840529796045166e-18 0.0
5.851166756682596e-18 0.0
5.861464462706855e-18 0.0
5.873967954562819e-18 0.0
5.888358813750402e-18 0.0
5.9042237170442064e-18 0.0
5.9183757353675284e-18 0.0
5.931606586678785e-18 0.0
5.9409179412198394e-18 0.0
5.955227249187982e-18 0.0
5.972503056431447e-18 0.0
5.9907606562697105e-18 0.0
6.009282914935139e-18 0.0
6.0345535612774854e-18 0.0
6.066814082284983e-18 0.0
6.0988678988133835e-18 0.0
6.1249992906088886e-18 0.0
6.1435925421247224e-18 0.0
6.1647541096319395e-18 0.0
6.188235685319249e-18 0.0
6.206356328373747e-18 0.0
6.2302161259744815e-18 0.0
6.254041999899756e-18 0.0
6.280957999730571e-18 0.0
6.305842696992612e-18 0.0
6.331678294650115e-18 0.0
6.35398906243982e-18 0.0
6.377467066318876e-18 0.0
6.4013977474514905e-18 0.0
6.4184893334283975e-18 0.0
6.440141101662766e-18 0.0
6.460919883556854e-18 0.0
6.4830518606476565e-18 0.0
6.507019192581818e-18 0.0
6.532019850174774e-18 0.0
6.56351175531661e-18 0.0
6.595347701113163e-18 0.0
6.632219206127983e-18 0.0
6.66662091011534e-18 0.0
6.7022048730185765e-18 0.0
6.7398153431168516e-18 0.0
6.777570462606703e-18 0.0
6.816228880456602e-18 0.0
6.8588951155463695e-18 0.0
6.895151593535613e-18 0.0
6.9359430279563315e-18 0.0
6.98030387349219e-18 0.0
7.025536701166027e-18 0.0
7.079116967510354e-18 0.0
7.133375053292308e-18 0.0
7.189071434127989e-18 0.0
7.240148678642683e-18 0.0
7.288547369648082e-18 0.0
7.33571087277728e-18 0.0
7.381445729983539e-18 0.0
7.43181298956065e-18 0.0
7.480114174587144e-18 0.0
7.53239965637166e-18 0.0
7.588744034316089e-18 0.0
7.64776551639138e-18 0.0
7.704410071712328e-18 0.0
7.762432811644628e-18 0.0
7.815029718589972e-18 0.0
7.871847450070994e-18 0.0
7.929250065638456e-18 0.0
7.981256973104902e-18 0.0
8.034025523170082e-18 0.0
8.089430286846689e-18 0.0
8.139041381922038e-18 0.0
8.18662756903275e-18 0.0
8.231699472762904e-18 0.0
8.272363711649627e-18 0.0
8.319650014471845e-18 0.0
8.369939130196388e-18 0.0
8.421521801571066e-18 0.0
8.472199729587412e-18 0.0
8.525921310371243e-18 0.0
8.584716612027212e-18 0.0
8.642899834934642e-18 0.0
8.70530357076406e-18 0.0
8.764014114828726e-18 0.0
8.826863190103625e-18 0.0
8.88664094974223e-18 0.0
8.948084894114173e-18 0.0
9.015002267986244e-18 0.0
9.073965833220372e-18 0.0
9.130727079576628e-18 0.0
9.181726170390468e-18 0.0
9.233230229703572e-18 0.0
9.277805490700838e-18 0.0
9.318094461292301e-18 0.0
9.353992322409697e-18 0.0
9.388351022118622e-18 0.0
9.418042062853066e-18 0.0
9.45143362263217e-18 0.0
9.482075742316657e-18 0.0
9.516842726802801e-18 0.0
9.551118957411933e-18 0.0
9.584879818283e-18 0.0
9.617243467162894e-18 0.0
9.644148163958739e-18 0.0
9.677261697740635e-18 0.0
9.710027102498807e-18 0.0
9.74692101875723e-18 0.0
9.790968359865176e-18 0.0
9.832140490198408e-18 0.0
9.876337796575755e-18 0.0
9.92231308432537e-18 0.0
9.970313611535686e-18 0.0
1.0021218533480623e-17 0.0
1.0072884966819984e-17 0.0
1.0129504513619865e-17 0.0
1.01846683205544e-17 0.0
1.0235329487532355e-17 0.0
1.0284796424020132e-17 0.0
1.0336551447936794e-17 0.0
1.0391091955368906e-17 0.0
1.0449109053436154e-17 0.0
1.050621864861238e-17 0.0
1.0558558351982589e-17 0.0
1.0613251831529057e-17 0.0
1.0659214682305651e-17 0.0
1.0706079135794077e-17 0.0
1.0746921279699237e-17 0.0
1.0783315283213096e-17 0.0
1.0820029833904999e-17 0.0
1.0857774839936681e-17 0.0
1.0888114917727518e-17 0.0
1.0925527323060156e-17 0.0
1.0961330445344875e-17 0.0
1.1003074305470115e-17 0.0
1.1044230816811139e-17 0.0
1.1089471276051942e-17 0.0
1.1137415847921813e-17 0.0
1.1181013378961048e-17 0.0
1.1226176745241381e-17 0.0
1.1271227816957257e-17 0.0
1.1309716729811653e-17 0.0
1.1346187458505703e-17 0.0
1.1383688485307224e-17 0.0
1.141398632315829e-17 0.0
1.144061355733218e-17 0.0
1.1463233993434526e-17 0.0
1.1479926772168884e-17 0.0
1.1502230553623606e-17 0.0
1.152386591207441e-17 0.0
1.1539522652352386e-17 0.0
1.155385410777776e-17 0.0
1.1568853909257168e-17 0.0
1.1590145544601484e-17 0.0
1.1612590205388272e-17 0.0
1.1630297897603782e-17 0.0
1.1651125050125587e-17 0.0
1.1674896152326615e-17 0.0
1.1693354455389584e-17 0.0
1.1708884115503867e-17 0.0
1.172638736169218e-17 0.0
1.1748246589681412e-17 0.0
1.1761130714526347e-17 0.0
1.1769435911334188e-17 0.0
1.1775198980703543e-17 0.0
1.1777172236964464e-17 0.0
1.1787418396642363e-17 0.0
1.1800706125250046e-17 0.0
1.1808113939421999e-17 0.0
1.1825687599704889e-17 0.0
1.1841227066118077e-17 0.0
1.1865145012147448e-17 0.0
1.187806275856799e-17 0.0
1.189478231212556e-17 0.0
1.190669138911079e-17 0.0
1.1918977353223864e-17 0.0
1.1922402487578602e-17 0.0
1.1934291979299993e-17 0.0
1.1946596572038573e-17 0.0
1.1965601888355904e-17 0.0
1.1981342155316701e-17 0.0
1.1999223403504433e-17 0.0
1.2009775327065807e-17 0.0
1.2022705574002542e-17 0.0
1.2033636033941897e-17 0.0
1.2040487278027908e-17 0.0
1.2052845583808619e-17 0.0
1.206599002925667e-17 0.0
1.208057526336287e-17 0.0
1.2092822125842676e-17 0.0
1.2109037498441075e-17 0.0
1.212229997874099e-17 0.0
1.2142898634843985e-17 0.0
1.2166820173036495e-17 0.0
1.2189119513569605e-17 0.0
1.2219394940675208e-17 0.0
1.2249821591881815e-17 0.0
1.2280370752937692e-17 0.0
1.2312787841674989e-17 0.0
1.2349025035148477e-17 0.0
1.238445578927347e-17 0.0
1.2413050017063806e-17 0.0
1.2439638889791364e-17 0.0
1.2465422408416342e-17 0.0
1.2494106706534591e-17 0.0
1.2518195839207334e-17 0.0
1.2537811704348402e-17 0.0
1.2559224415333491e-17 0.0
1.2583935051204021e-17 0.0
1.2602558783190732e-17 0.0
1.2619276345421897e-17 0.0
1.2637015457861e-17 0.0
1.2653578779655407e-17 0.0
1.2666799079801924e-17 0.0
1.268260952183666e-17 0.0
1.2698370772009665e-17 0.0
1.2714093791343692e-17 0.0
1.2727363471520777e-17 0.0
1.2745247284156775e-17 0.0
1.2762883098335321e-17 0.0
1.278016996611658e-17 0.0
1.2799077327604414e-17 0.0
1.2820604184446774e-17 0.0
1.2846291977281259e-17 0.0
1.2869423912888311e-17 0.0
1.2900435149921759e-17 0.0
1.2937162787899896e-17 0.0
1.2974237325274458e-17 0.0
1.3011454828005562e-17 0.0
1.3048895339532209e-17 0.0
1.308473503365591e-17 0.0
1.3122062939072234e-17 0.0
1.316163244802203e-17 0.0
1.3203952479619647e-17 0.0
1.3247583741624744e-17 0.0
1.3289068560688395e-17 0.0
1.3329508883520618e-17 0.0
1.3369759382252327e-17 0.0
1.3411311410525333e-17 0.0
1.344857461281554e-17 0.0
1.3483442339923292e-17 0.0
1.3513736667933396e-17 0.0
1.3540032894368434e-17 0.0
1.3564439955333265e-17 0.0
1.3594989797897305e-17 0.0
1.3621888318444532e-17 0.0
1.3645621748945825e-17 0.0
1.366840516470927e-17 0.0
1.3687066779207685e-17 0.0
1.370774085336232e-17 0.0
1.3740506110871387e-17 0.0
1.3752124236337449e-17 0.0
1.3762244083056176e-17 0.0
1.3768698208660172e-17 0.0
1.377930570394629e-17 0.0
1.3777333970104673e-17 0.0
1.3779661354798845e-17 0.0
1.3781322377525739e-17 0.0
1.3778685232876452e-17 0.0
1.3782834806534134e-17 0.0
1.3802344352667806e-17 0.0
1.3839301841684051e-17 0.0
1.389819722870208e-17 0.0
1.3978221335875368e-17 0.0
1.409209768656071e-17 0.0
1.4223719324515203e-17 0.0
1.434825711890029e-17 0.0
1.4464759602450374e-17 0.0
1.456034779219351e-17 0.0
1.4654868293637683e-17 0.0
1.4729590564834183e-17 0.0
1.4833470819885073e-17 0.0
1.5000451758248388e-17 0.0
1.5175169218556084e-17 0.0
1.53408181713521e-17 0.0
1.5575699972602706e-17 0.0
1.5769895721347627e-17 0.0
1.59468030159138e-17 0.0
1.6238910651139737e-17 0.0
1.6534874206641744e-17 0.0
1.6760486386915773e-17 0.0
1.6921563050729564e-17 0.0
1.7289657103620087e-17 0.0
1.761473886080133e-17 0.0
1.8191902850790595e-17 0.0
1.8496338117298913e-17 0.0
1.9361826369616054e-17 0.0
1.975300486304035e-17 0.0
2.0389217276520127e-17 0.0
2.1417101897240216e-17 0.0
2.2179120766611766e-17 0.0
2.3080943626813496e-17 0.0
2.4266864049149067e-17 0.0
2.5169451095000475e-17 0.0
2.6020337699073998e-17 0.0
2.776781546953722e-17 0.0
2.9167024157306734e-17 0.0
2.994183976773256e-17 0.0
3.1564763450413573e-17 0.0
3.2940221721482696e-17 0.0
3.549170554970563e-17 0.0
3.7888657285582416e-17 0.0
4.018489744760613e-17 0.0
4.1888353403777764e-17 0.0
4.417285731939686e-17 0.0
4.51641589174352e-17 0.0
4.6455664584435e-17 0.0
4.800257939726609e-17 0.0
4.896755207710065e-17 0.0
4.985359351900244e-17 0.0
4.9748071301895705e-17 0.0
5.061525667191916e-17 0.0
5.0652566524247267e-17 0.0
5.022729850604102e-17 0.0
4.9477885379824456e-17 0.0
4.7944793234506203e-17 0.0
4.432388537002873e-17 0.0
3.84434650231896e-17 0.0
3.240666789278045e-17 0.0
2.7776906674739426e-17 0.0
2.6525518008957818e-17 0.0
2.6454364172497557e-17 0.0
2.4660656530499468e-17 0.0
2.2942345607359578e-17 0.0
1.8423937681470246e-17 0.0
1.4250834298049763e-17 0.0
9.782530936881236e-18 0.0
6.284518663071515e-18 0.0
2.766167766887781e-18 0.0
0.0 0.009234165287256053
0.0 0.02210978593044962
0.0 0.04006285207154406
0.0 0.06509563926325795
-2.5439687620027354e-17 0.1
-2.3802057273952375e-17 0.1
-3.410857029553997e-17 0.1
-3.800379873281669e-17 0.1
0.0 0.0923409595166237
0.0 0.08526779443703715
0.0 0.07873568783499982
0.0 0.07270325358170412
0.0 0.06713226878993225
0.0 0.061987433310909466
0.0 0.057236152337945254
0.0 0.052848316929512106
0.0 0.048796128449944375
0.0 0.045053910657847064
0.0 0.04159795282712712
0.0 0.038406357242570334
0.0 0.035458901718218604
0.0 0.03273691087332378
0.0 0.03022313773602717
0.0 0.02790165483820296
0.0 0.02575775300195996
0.0 0.02377784835211391
0.0 0.02194939580780265
0.0 0.02026081025589358
0.0 0.01870139222365253
0.0 0.017261261595034553
0.0 0.0159312933366802
0.0 0.01470306037294036
0.0 0.013568780782904499
0.0 0.01252126748286137
0.0 0.011553883413523664
0.0 0.01066049914384291
0.0 0.009835453922831108
0.0 0.009073520329637427
0.0 0.00836987060878855
0.0 0.00772004630338113
0.0 0.0071199300123597885
0.0 0.006565719473503317
0.0 0.006053903138567362
0.0 0.005581237991563802
0.0 0.005144729226039184
0.0 0.004741611057488201
0.0 0.004369329279130304
0.0 0.004025525044342879
0.0 0.003708020011724204
0.0 0.003414802423508247
0.0 0.003144014422039686
0.0 0.0028939402701323824
0.0 0.0026629954677668093
0.0 0.0024497166854122576
0.0 0.0022527526214289983
0.0 0.002070855251383786
0.0 0.00190287204588266
0.0 0.001747738681016761
0.0 0.0016044721595495598
0.0 0.0014721647906378445
0.0 0.0013499782257141923
0.0 0.0012371382931367695
0.0 0.0011329300626249498
0.0 0.0010366933870005362
0.0 0.0009478187676913855
0.0 0.0008657437843459841
0.0 0.0007899500241322627
0.0 0.0007199604113268509
0.0 0.0006553372334275272
0.0 0.0005956811966150335
0.0 0.0005406264200822761
0.0 0.0004898511346370972
0.0 0.00044305277941994773
0.0 0.0003999814368708763
0.0 0.00036039581732631807
0.0 0.00032409736662106556
0.0 0.00029091717453233733
0.0 0.00026070748579901836
0.0 0.00023333209773385835
0.0 0.00020867176230919914
0.0 0.0001866685473303387
0.0 0.00016720859774709243
0.0 0.00015033291866701674
0.0 0.0001359869393746361
0.0 0.00012407394956144297
0.0 0.00011476162839263294
0.0 0.0001080344119139988
0.0 0.00010389652475948512
0.0 0.00010191418484211414
0.0 0.000101291594726611
0.0 0.00010111410660336754
1.4049306033734325e-17 0.0049272451326618635
7.356760454094729e-18 0.002773874597389736
1.2509752002663866e-17 0.0015359333715498384
6.024070773472621e-12 0.0009049730090189292
7.334480740525855e-18 0.0014042041053077808
1.4876453573213487e-17 0.00225978494260471
9.169802333857763e-09 0.0005051816557278643
1.0446215607856135e-17 0.0012867734734088368
2.3843750018897743e-15 0.0007827815987209217
5.386039550424121e-18 0.0007701206757723362
7.637218147988936e-18 0.0007097590365106988
1.0488350457200061e-17 0.000676776896250007
2.9901920059143055e-17 0.014973736461409976
1.1841377198711681e-17 0.0006657294860763372
9.921704859324653e-11 0.0004443135528464535
5.008090607800724e-13 0.00043919062253854974
1.5561242250105673e-17 0.0011704180815624349
3.27664946842328e-07 0.00029881629194395104
2.892576202110627e-15 0.00039176462749570466
1.3663209942256592e-17 0.00042324461537986087
6.373970219819578e-18 0.0004004930540330188
7.134332258341565e-18 0.000377277370101616
8.780726863472488e-18 0.0003779922736688249
1.3269579186449243e-17 0.0006414990043901044
1.0185508000645653e-17 0.000352470149788874
1.1326181184400342e-17 0.0003911916516413812
-5.472606854007246e-20 0.04847397115433256
2.6892010966182547e-08 0.00025340227152803607
1.5766848796278976e-09 0.00024233437441737677
1.2174415427867827e-17 0.00033400753026386617
1.280393696973917e-17 0.0003955732173969897
3.3804075998519607e-17 0.007989497114757152
2.4920978173612724e-17 0.003711834662427656
1.0618306564291895e-10 0.00022194683733418066
5.510518394853739e-12 0.0002313045383949079
3.1728636051572566e-13 0.0002220359481529164
2.175741471106655e-14 0.00020086702166981416
1.4591838286925698e-15 0.00019930870159552428
6.827964530291193e-17 0.00022296027562329805
8.249965209405958e-18 0.00021839892709070267
5.821707447295219e-18 0.0002004305654089186
6.2986246043432815e-18 0.0002208509368239468
2.3316174211756774e-06 0.0001663862563292906
6.514093405517407e-18 0.0001866658418031512
7.656380215509334e-18 0.00021249040749849195
8.671206875684955e-18 0.00019683474572091298
9.501980960178096e-18 0.0002105561768270983
1.2571797099974612e-17 0.00023517685632601783
1.1148173665973423e-17 0.00023249742153095735