# vtk DataFile Version 3.0
Some data
ASCII
DATASET UNSTRUCTURED_GRID
POINTS 7930 float
0.0 0.0 0.0
0.0 10.0 0.0
10.0 10.0 0.0
10.0 0.0 0.0
0.5 0.0 0.0
0.0009999999999981016 0.0 0.0
0.001999999999996203 0.0 0.0
0.002999999999994305 0.0 0.0
0.003999999999992409 0.0 0.0
0.004999999999990531 0.0 0.0
0.005999999999988653 0.0 0.0
0.006999999999986775 0.0 0.0
0.007999999999984898 0.0 0.0
0.008999999999983018 0.0 0.0
0.009999999999981142 0.0 0.0
0.01099999999997926 0.0 0.0
0.01199999999997736 0.0 0.0
0.0129999999999754 0.0 0.0
0.01399999999997343 0.0 0.0
0.01499999999997147 0.0 0.0
0.01599999999996944 0.0 0.0
0.0169999999999673 0.0 0.0
0.01799999999996516 0.0 0.0
0.01899999999996302 0.0 0.0
0.01999999999996084 0.0 0.0
0.02099999999995862 0.0 0.0
0.02199999999995639 0.0 0.0
0.02299999999995417 0.0 0.0
0.02399999999995195 0.0 0.0
0.02499999999994972 0.0 0.0
0.0259999999999475 0.0 0.0
0.02699999999994527 0.0 0.0
0.02799999999994315 0.0 0.0
0.0289999999999411 0.0 0.0
0.02999999999993905 0.0 0.0
0.030999999999937 0.0 0.0
0.03199999999993521 0.0 0.0
0.0329999999999335 0.0 0.0
0.0339999999999318 0.0 0.0
0.03499999999993009 0.0 0.0
0.03599999999992853 0.0 0.0
0.036999999999927 0.0 0.0
0.03799999999992547 0.0 0.0
0.03899999999992394 0.0 0.0
0.03999999999992241 0.0 0.0
0.04099999999992088 0.0 0.0
0.04199999999991934 0.0 0.0
0.04299999999991782 0.0 0.0
0.04399999999991629 0.0 0.0
0.04499999999991475 0.0 0.0
0.04599999999991322 0.0 0.0
0.0469999999999117 0.0 0.0
0.04799999999991016 0.0 0.0
0.04899999999990863 0.0 0.0
0.0499999999999071 0.0 0.0
0.05099999999990557 0.0 0.0
0.05199999999990404 0.0 0.0
0.05299999999990251 0.0 0.0
0.05399999999990097 0.0 0.0
0.05499999999989943 0.0 0.0
0.05599999999989791 0.0 0.0
0.05699999999989638 0.0 0.0
0.05799999999989484 0.0 0.0
0.05899999999989317 0.0 0.0
0.05999999999989129 0.0 0.0
0.06099999999988941 0.0 0.0
0.06199999999988753 0.0 0.0
0.06299999999988531 0.0 0.0
0.06399999999988273 0.0 0.0
0.06499999999988015 0.0 0.0
0.06599999999987759 0.0 0.0
0.0669999999998748 0.0 0.0
0.06799999999987189 0.0 0.0
0.06899999999986897 0.0 0.0
0.06999999999986604 0.0 0.0
0.07099999999986313 0.0 0.0
0.0719999999998602 0.0 0.0
0.07299999999985729 0.0 0.0
0.07399999999985438 0.0 0.0
0.07499999999985145 0.0 0.0
0.07599999999984854 0.0 0.0
0.07699999999984562 0.0 0.0
0.0779999999998427 0.0 0.0
0.07899999999983978 0.0 0.0
0.07999999999983685 0.0 0.0
0.08099999999983394 0.0 0.0
0.08199999999983103 0.0 0.0
0.0829999999998281 0.0 0.0
0.08399999999982519 0.0 0.0
0.08499999999982226 0.0 0.0
0.08599999999981935 0.0 0.0
0.08699999999981643 0.0 0.0
0.0879999999998135 0.0 0.0
0.08899999999981059 0.0 0.0
0.08999999999980766 0.0 0.0
0.09099999999980475 0.0 0.0
0.09199999999980184 0.0 0.0
0.09299999999979891 0.0 0.0
0.093999999999796 0.0 0.0
0.09499999999979307 0.0 0.0
0.09599999999979016 0.0 0.0
0.09699999999978724 0.0 0.0
0.09799999999978432 0.0 0.0
0.0989999999997814 0.0 0.0
0.09999999999977847 0.0 0.0
0.1009999999997756 0.0 0.0
0.1019999999997726 0.0 0.0
0.1029999999997697 0.0 0.0
0.1039999999997668 0.0 0.0
0.1049999999997639 0.0 0.0
0.105999999999761 0.0 0.0
0.106999999999758 0.0 0.0
0.1079999999997551 0.0 0.0
0.1089999999997522 0.0 0.0
0.1099999999997493 0.0 0.0
0.1109999999997464 0.0 0.0
0.1119999999997434 0.0 0.0
0.1129999999997405 0.0 0.0
0.1139999999997376 0.0 0.0
0.1149999999997347 0.0 0.0
0.1159999999997318 0.0 0.0
0.1169999999997288 0.0 0.0
0.1179999999997259 0.0 0.0
0.118999999999723 0.0 0.0
0.1199999999997201 0.0 0.0
0.1209999999997172 0.0 0.0
0.1219999999997143 0.0 0.0
0.1229999999997113 0.0 0.0
0.1239999999997084 0.0 0.0
0.1249999999997055 0.0 0.0
0.1259999999997026 0.0 0.0
0.1269999999996997 0.0 0.0
0.1279999999996967 0.0 0.0
0.1289999999996938 0.0 0.0
0.1299999999996909 0.0 0.0
0.130999999999688 0.0 0.0
0.1319999999996851 0.0 0.0
0.1329999999996822 0.0 0.0
0.1339999999996792 0.0 0.0
0.1349999999996764 0.0 0.0
0.1359999999996734 0.0 0.0
0.1369999999996705 0.0 0.0
0.1379999999996676 0.0 0.0
0.1389999999996647 0.0 0.0
0.1399999999996618 0.0 0.0
0.1409999999996588 0.0 0.0
0.1419999999996559 0.0 0.0
0.142999999999653 0.0 0.0
0.1439999999996501 0.0 0.0
0.1449999999996472 0.0 0.0
0.1459999999996442 0.0 0.0
0.1469999999996414 0.0 0.0
0.1479999999996384 0.0 0.0
0.1489999999996355 0.0 0.0
0.1499999999996326 0.0 0.0
0.1509999999996297 0.0 0.0
0.1519999999996268 0.0 0.0
0.1529999999996239 0.0 0.0
0.1539999999996209 0.0 0.0
0.154999999999618 0.0 0.0
0.1559999999996151 0.0 0.0
0.1569999999996122 0.0 0.0
0.1579999999996093 0.0 0.0
0.1589999999996064 0.0 0.0
0.1599999999996035 0.0 0.0
0.1609999999996005 0.0 0.0
0.1619999999995976 0.0 0.0
0.1629999999995947 0.0 0.0
0.1639999999995918 0.0 0.0
0.1649999999995889 0.0 0.0
0.165999999999586 0.0 0.0
0.1669999999995831 0.0 0.0
0.1679999999995801 0.0 0.0
0.1689999999995772 0.0 0.0
0.1699999999995743 0.0 0.0
0.1709999999995714 0.0 0.0
0.1719999999995685 0.0 0.0
0.1729999999995655 0.0 0.0
0.1739999999995626 0.0 0.0
0.1749999999995597 0.0 0.0
0.1759999999995568 0.0 0.0
0.1769999999995539 0.0 0.0
0.177999999999551 0.0 0.0
0.178999999999548 0.0 0.0
0.1799999999995451 0.0 0.0
0.1809999999995422 0.0 0.0
0.1819999999995393 0.0 0.0
0.1829999999995364 0.0 0.0
0.1839999999995335 0.0 0.0
0.1849999999995305 0.0 0.0
0.1859999999995277 0.0 0.0
0.1869999999995247 0.0 0.0
0.1879999999995218 0.0 0.0
0.1889999999995189 0.0 0.0
0.189999999999516 0.0 0.0
0.1909999999995131 0.0 0.0
0.1919999999995101 0.0 0.0
0.1929999999995072 0.0 0.0
0.1939999999995043 0.0 0.0
0.1949999999995014 0.0 0.0
0.1959999999994985 0.0 0.0
0.1969999999994956 0.0 0.0
0.1979999999994927 0.0 0.0
0.1989999999994897 0.0 0.0
0.1999999999994868 0.0 0.0
0.2009999999994839 0.0 0.0
0.201999999999481 0.0 0.0
0.2029999999994781 0.0 0.0
0.2039999999994752 0.0 0.0
0.2049999999994722 0.0 0.0
0.2059999999994693 0.0 0.0
0.2069999999994664 0.0 0.0
0.2079999999994635 0.0 0.0
0.2089999999994606 0.0 0.0
0.2099999999994577 0.0 0.0
0.2109999999994548 0.0 0.0
0.2119999999994518 0.0 0.0
0.2129999999994489 0.0 0.0
0.213999999999446 0.0 0.0
0.2149999999994431 0.0 0.0
0.2159999999994402 0.0 0.0
0.2169999999994373 0.0 0.0
0.2179999999994343 0.0 0.0
0.2189999999994314 0.0 0.0
0.2199999999994285 0.0 0.0
0.2209999999994256 0.0 0.0
0.2219999999994227 0.0 0.0
0.2229999999994198 0.0 0.0
0.2239999999994168 0.0 0.0
0.2249999999994139 0.0 0.0
0.225999999999411 0.0 0.0
0.2269999999994081 0.0 0.0
0.2279999999994052 0.0 0.0
0.2289999999994023 0.0 0.0
0.2299999999993994 0.0 0.0
0.2309999999993964 0.0 0.0
0.2319999999993935 0.0 0.0
0.2329999999993906 0.0 0.0
0.2339999999993877 0.0 0.0
0.2349999999993848 0.0 0.0
0.2359999999993818 0.0 0.0
0.236999999999379 0.0 0.0
0.237999999999376 0.0 0.0
0.2389999999993731 0.0 0.0
0.2399999999993702 0.0 0.0
0.2409999999993673 0.0 0.0
0.2419999999993644 0.0 0.0
0.2429999999993615 0.0 0.0
0.2439999999993585 0.0 0.0
0.2449999999993556 0.0 0.0
0.2459999999993527 0.0 0.0
0.246999999999351 0.0 0.0
0.2479999999993495 0.0 0.0
0.248999999999348 0.0 0.0
0.2499999999993464 0.0 0.0
0.2509999999993477 0.0 0.0
0.2519999999993489 0.0 0.0
0.2529999999993502 0.0 0.0
0.2539999999993516 0.0 0.0
0.2549999999993542 0.0 0.0
0.2559999999993569 0.0 0.0
0.2569999999993595 0.0 0.0
0.2579999999993621 0.0 0.0
0.2589999999993647 0.0 0.0
0.2599999999993673 0.0 0.0
0.26099999999937 0.0 0.0
0.2619999999993726 0.0 0.0
0.2629999999993753 0.0 0.0
0.2639999999993779 0.0 0.0
0.2649999999993806 0.0 0.0
0.2659999999993832 0.0 0.0
0.2669999999993858 0.0 0.0
0.2679999999993884 0.0 0.0
0.2689999999993911 0.0 0.0
0.2699999999993937 0.0 0.0
0.2709999999993963 0.0 0.0
0.271999999999399 0.0 0.0
0.2729999999994017 0.0 0.0
0.2739999999994043 0.0 0.0
0.2749999999994069 0.0 0.0
0.2759999999994096 0.0 0.0
0.2769999999994122 0.0 0.0
0.2779999999994148 0.0 0.0
0.2789999999994174 0.0 0.0
0.2799999999994201 0.0 0.0
0.2809999999994228 0.0 0.0
0.2819999999994254 0.0 0.0
0.282999999999428 0.0 0.0
0.2839999999994306 0.0 0.0
0.2849999999994333 0.0 0.0
0.2859999999994359 0.0 0.0
0.2869999999994385 0.0 0.0
0.2879999999994411 0.0 0.0
0.2889999999994439 0.0 0.0
0.2899999999994465 0.0 0.0
0.2909999999994491 0.0 0.0
0.2919999999994517 0.0 0.0
0.2929999999994544 0.0 0.0
0.293999999999457 0.0 0.0
0.2949999999994596 0.0 0.0
0.2959999999994622 0.0 0.0
0.2969999999994649 0.0 0.0
0.2979999999994676 0.0 0.0
0.2989999999994702 0.0 0.0
0.2999999999994728 0.0 0.0
0.3009999999994754 0.0 0.0
0.3019999999994781 0.0 0.0
0.3029999999994807 0.0 0.0
0.3039999999994834 0.0 0.0
0.304999999999486 0.0 0.0
0.3059999999994886 0.0 0.0
0.3069999999994913 0.0 0.0
0.3079999999994939 0.0 0.0
0.3089999999994965 0.0 0.0
0.3099999999994992 0.0 0.0
0.3109999999995018 0.0 0.0
0.3119999999995045 0.0 0.0
0.3129999999995071 0.0 0.0
0.3139999999995097 0.0 0.0
0.3149999999995123 0.0 0.0
0.315999999999515 0.0 0.0
0.3169999999995176 0.0 0.0
0.3179999999995203 0.0 0.0
0.3189999999995229 0.0 0.0
0.3199999999995256 0.0 0.0
0.3209999999995282 0.0 0.0
0.3219999999995308 0.0 0.0
0.3229999999995334 0.0 0.0
0.323999999999536 0.0 0.0
0.3249999999995387 0.0 0.0
0.3259999999995414 0.0 0.0
0.326999999999544 0.0 0.0
0.3279999999995466 0.0 0.0
0.3289999999995493 0.0 0.0
0.3299999999995519 0.0 0.0
0.3309999999995545 0.0 0.0
0.3319999999995571 0.0 0.0
0.3329999999995598 0.0 0.0
0.3339999999995625 0.0 0.0
0.3349999999995651 0.0 0.0
0.3359999999995677 0.0 0.0
0.3369999999995703 0.0 0.0
0.337999999999573 0.0 0.0
0.3389999999995756 0.0 0.0
0.3399999999995783 0.0 0.0
0.3409999999995809 0.0 0.0
0.3419999999995835 0.0 0.0
0.3429999999995862 0.0 0.0
0.3439999999995888 0.0 0.0
0.3449999999995914 0.0 0.0
0.345999999999594 0.0 0.0
0.3469999999995967 0.0 0.0
0.3479999999995994 0.0 0.0
0.348999999999602 0.0 0.0
0.3499999999996046 0.0 0.0
0.3509999999996072 0.0 0.0
0.3519999999996099 0.0 0.0
0.3529999999996125 0.0 0.0
0.3539999999996151 0.0 0.0
0.3549999999996178 0.0 0.0
0.3559999999996205 0.0 0.0
0.3569999999996231 0.0 0.0
0.3579999999996257 0.0 0.0
0.3589999999996283 0.0 0.0
0.359999999999631 0.0 0.0
0.3609999999996336 0.0 0.0
0.3619999999996362 0.0 0.0
[...]
POINT_DATA 7930
SCALARS Disp float 2
LOOKUP_TABLE default
0.0 0.0011918174342467754
0.0 0.1
0.0 0.1
0.0 0.0
4.340662829270569e-07 0.0
-6.886069450626573e-06 0.001191741598094196
-1.3766226598688374e-05 0.001191195863031288
-2.0552685267627015e-05 0.0011899531977054964
-2.7373140897122244e-05 0.001188797950877256
-3.440531426597976e-05 0.0011878489433720756
-4.15630624720845e-05 0.0011855787544731637
-4.8183393547957314e-05 0.00118182136168309
-5.459250620856806e-05 0.0011790555142383293
-6.163482398077973e-05 0.0011771712801552671
-6.899298429876078e-05 0.001173969660038674
-7.57978920475769e-05 0.0011679505723823788
-8.188108010122291e-05 0.001163142383827144
-8.876955152908162e-05 0.00116015666224399
-9.60464163992932e-05 0.0011554458121012425
-0.00010270508143538079 0.001147993343910907
-0.00010878889031345328 0.0011415668706175703
-0.00011558289321002316 0.001137331380333329
-0.00012336062761278237 0.0011311659745856838
-0.00013029063147602737 0.0011216363592223078
-0.0001361778256141303 0.0011128344082087164
-0.00014279306967626698 0.0011073041961677074
-0.00015056803622891577 0.0010996523792816413
-0.00015750781677926194 0.0010879447853806878
-0.00016323722882071267 0.0010771600095477731
-0.0001697824376027573 0.0010700072609641403
-0.00017765634538978236 0.0010608908646398997
-0.00018464029861262372 0.0010470829846527556
-0.00019053325774164953 0.0010339375210671252
-0.00019707227783611388 0.0010243137918295407
-0.00020498570419293045 0.0010129919110078867
-0.00021205721500561835 0.000996841793923206
-0.00021797889096782962 0.0009810073808302047
-0.00022441752024664023 0.000969119471411816
-0.00023186900901404182 0.0009560296298054681
-0.00023929712047234455 0.0009371718508968765
-0.0002453301242617681 0.0009181347076339889
-0.0002517468265958416 0.0009032354575372865
-0.0002598041983063627 0.0008870109065614726
-0.0002671674243265588 0.0008644635994864228
-0.00027298676974340044 0.0008412564489478381
-0.00027909352816059903 0.0008225987907881779
-0.00028641998083362645 0.0008030422721314166
-0.0002940439663176292 0.0007764628946870086
-0.0003001644483947253 0.000748316378196948
-0.0003061762576180291 0.0007243086786586342
-0.0003141630852440493 0.0006991634763877173
-0.0003219574284280979 0.0006664524456886174
-0.00032782982042862946 0.0006304798066144224
-0.0003337986775862926 0.0005978951651851955
-0.00034101890162136633 0.0005634783887864668
-0.0003491774269028138 0.0005193163678410082
-0.0003542631709161982 0.00046962405382624855
-0.00035938715554194626 0.00042010738109107343
-0.00036691811874741423 0.00036356294288523213
-0.0003732677381568408 0.00028787077451247745
-0.00037187340089185703 0.0001844392413762307
-0.00034878023674699346 0.0
-0.0003113293069966197 0.0
-0.0002865710528239977 0.0
-0.00026982017231624297 0.0
-0.00025596646305504976 0.0
-0.00024439044192800014 0.0
-0.00023416007985825832 0.0
-0.00022504167182412483 0.0
-0.00021680313221683763 0.0
-0.00020938631184367495 0.0
-0.0002025594183659249 0.0
-0.0001962362594025591 0.0
-0.0001903757258532608 0.0
-0.00018492503524182517 0.0
-0.00017977623457046663 0.0
-0.00017493667080504578 0.0
-0.00017036211493071752 0.0
-0.00016599929892797477 0.0
-0.00016186406032309565 0.0
-0.00015793902978292128 0.0
-0.0001541957175352487 0.0
-0.00015062442339978125 0.0
-0.0001471862386673716 0.0
-0.00014389876564012104 0.0
-0.00014074621003463728 0.0
-0.0001377088201761057 0.0
-0.00013478534542815015 0.0
-0.00013198351826498164 0.0
-0.0001292705249584559 0.0
-0.000126646185351193 0.0
-0.0001241188649001796 0.0
-0.00012167698475325116 0.0
-0.00011931979460302312 0.0
-0.00011703189137909784 0.0
-0.00011481491247594198 0.0
-0.00011266462346852426 0.0
-0.00011057400702783823 0.0
-0.00010854258241103725 0.0
-0.00010657206562923085 0.0
-0.00010465333022645602 0.0
-0.00010277762289182384 0.0
-0.00010095009839265481 0.0
-9.916208636784756e-05 0.0
-9.742261125856925e-05 0.0
-9.57231208047352e-05 0.0
-9.406811007341457e-05 0.0
-9.245393409241421e-05 0.0
-9.087954161449072e-05 0.0
-8.934293693030322e-05 0.0
-8.783442121717994e-05 0.0
-8.636707545398712e-05 0.0
-8.494434291618458e-05 0.0
-8.353468635070717e-05 0.0
-8.216551815795137e-05 0.0
-8.082863566039896e-05 0.0
-7.951695570973398e-05 0.0
-7.823471812370922e-05 0.0
-7.697999191127281e-05 0.0
-7.574811792759729e-05 0.0
-7.454207235520532e-05 0.0
-7.336172748855332e-05 0.0
-7.220505083469168e-05 0.0
-7.107647208327999e-05 0.0
-6.995497363629962e-05 0.0
-6.886283658048852e-05 0.0
-6.778748553861468e-05 0.0
-6.673494063560165e-05 0.0
-6.569576662744486e-05 0.0
-6.467751489534713e-05 0.0
-6.367641454168768e-05 0.0
-6.269245780658525e-05 0.0
-6.172489942297214e-05 0.0
-6.077420709450247e-05 0.0
-5.983950133810568e-05 0.0
-5.891993047468978e-05 0.0
-5.801491300857068e-05 0.0
-5.712639265993741e-05 0.0
-5.6254558438241627e-05 0.0
-5.538971573170049e-05 0.0
-5.454160389956643e-05 0.0
-5.3704783558177685e-05 0.0
-5.288068148915607e-05 0.0
-5.2067824185344946e-05 0.0
-5.126646297859693e-05 0.0
-5.047709769775893e-05 0.0
-4.969912388167386e-05 0.0
-4.8932228237117904e-05 0.0
-4.817501881976529e-05 0.0
-4.742906320632282e-05 0.0
-4.6694150195200234e-05 0.0
-4.59694534038615e-05 0.0
-4.525569310248554e-05 0.0
-4.4552269759930597e-05 0.0
-4.385877347523397e-05 0.0
-4.31756419195103e-05 0.0
-4.250296890531741e-05 0.0
-4.18398750168484e-05 0.0
-4.1186317395589325e-05 0.0
-4.054335228322655e-05 0.0
-3.991112627037477e-05 0.0
-3.9285727670865865e-05 0.0
-3.8671980656630454e-05 0.0
-3.806643934360712e-05 0.0
-3.746967916980161e-05 0.0
-3.688241498462811e-05 0.0
-3.62997707036763e-05 0.0
-3.57273235444583e-05 0.0
-3.5162121669728213e-05 0.0
-3.4603752802789e-05 0.0
-3.405235603144265e-05 0.0
-3.35073382288909e-05 0.0
-3.296825460032855e-05 0.0
-3.243476909047e-05 0.0
-3.190703674938852e-05 0.0
-3.138455850419039e-05 0.0
-3.0866815858396994e-05 0.0
-3.0354798693546448e-05 0.0
-2.9848357384426933e-05 0.0
-2.9346724580973753e-05 0.0
-2.884999109335685e-05 0.0
-2.8358685744004585e-05 0.0
-2.7872893390395398e-05 0.0
-2.7391652134999944e-05 0.0
-2.6915796945012e-05 0.0
-2.6445582551572548e-05 0.0
-2.5980571754622443e-05 0.0
-2.5521008241379437e-05 0.0
-2.5066993246133693e-05 0.0
-2.4618912181516157e-05 0.0
-2.4176225713476708e-05 0.0
-2.373928753649545e-05 0.0
-2.3308156607472732e-05 0.0
-2.2882781239620646e-05 0.0
-2.24631547994277e-05 0.0
-2.2049444067248625e-05 0.0
-2.1641077639508333e-05 0.0
-2.1238235512215106e-05 0.0
-2.0840610520312643e-05 0.0
-2.044841923070471e-05 0.0
-2.006165401517528e-05 0.0
-1.9679549192405297e-05 0.0
-1.9302059987551082e-05 0.0
-1.8929397695864116e-05 0.0
-1.856084539588298e-05 0.0
-1.819649955963852e-05 0.0
-1.7836341535994822e-05 0.0
-1.7480111790285435e-05 0.0
-1.7127408158659876e-05 0.0
-1.6778742760934556e-05 0.0
-1.643246642423021e-05 0.0
-1.6089490229225135e-05 0.0
-1.5749652476370985e-05 0.0
-1.5413120272524012e-05 0.0
-1.507939925678295e-05 0.0
-1.474859751392033e-05 0.0
-1.4420715052549892e-05 0.0
-1.4095482910775006e-05 0.0
-1.377310530423325e-05 0.0
-1.3454349051821376e-05 0.0
-1.313716673331948e-05 0.0
-1.2823493833608215e-05 0.0
-1.251298887740257e-05 0.0
-1.2205283257329114e-05 0.0
-1.1900705813537183e-05 0.0
-1.159944813269771e-05 0.0
-1.1301412223509065e-05 0.0
-1.1006590922763974e-05 0.0
-1.0715231133394476e-05 0.0
-1.042736801314447e-05 0.0
-1.0143055969047127e-05 0.0
-9.862420680356296e-06 0.0
-9.58533860393968e-06 0.0
-9.311866656481729e-06 0.0
-9.041985542488278e-06 0.0
-8.775746075958564e-06 0.0
-8.513062039614319e-06 0.0
-8.25397391585977e-06 0.0
-7.998543486949445e-06 0.0
-7.746464745437074e-06 0.0
-7.49791179610062e-06 0.0
-7.252588608540658e-06 0.0
-7.010689133361754e-06 0.0
-6.771938952614593e-06 0.0
-6.536137552758417e-06 0.0
-6.303260206112514e-06 0.0
-6.073184192312226e-06 0.0
-5.84572975616063e-06 0.0
-5.6207633751804285e-06 0.0
-5.398306491094486e-06 0.0
-5.178321825001311e-06 0.0
-4.960423060632922e-06 0.0
-4.744577200523851e-06 0.0
-4.530908343819286e-06 0.0
-4.3191428284115214e-06 0.0
-4.109195370739837e-06 0.0
-3.901029415077708e-06 0.0
-3.6945176342888177e-06 0.0
-3.489632726876576e-06 0.0
-3.2864635995367842e-06 0.0
-3.0847894542682165e-06 0.0
-2.884734969035796e-06 0.0
-2.6862701852628993e-06 0.0
-2.489452160623027e-06 0.0
-2.294281040089005e-06 0.0
-2.1007832758223795e-06 0.0
-1.9089471569328886e-06 0.0
-1.7188383299323978e-06 0.0
-1.5305934704010526e-06 0.0
-1.3441645038231666e-06 0.0
-1.1597743954851892e-06 0.0
-9.774968013077215e-07 0.0
-7.973367316008101e-07 0.0
-6.192937753388605e-07 0.0
-4.435797158361316e-07 0.0
-2.701602935557443e-07 0.0
-9.954304656453637e-08 0.0
6.887310735033603e-08 0.0
2.3449362153006828e-07 0.0
3.974157000913015e-07 0.0
5.5738821298408e-07 0.0
7.144461823965985e-07 0.0
8.686541298299945e-07 0.0
1.0197755093564939e-06 0.0
1.1679517500142812e-06 0.0
1.3128763604826957e-06 0.0
1.4545279324126007e-06 0.0
1.593162104866089e-06 0.0
1.7285533800955639e-06 0.0
1.8608887013864635e-06 0.0
1.9900221542150575e-06 0.0
2.1157909219630533e-06 0.0
2.2384431367100866e-06 0.0
2.3578104013534283e-06 0.0
2.474401448440358e-06 0.0
2.587796877849665e-06 0.0
2.6982296215744015e-06 0.0
2.8054245897065153e-06 0.0
2.9095401145612016e-06 0.0
3.011122248624075e-06 0.0
3.1097517675483707e-06 0.0
3.2055864599698726e-06 0.0
3.298682604107484e-06 0.0
3.3891572757530926e-06 0.0
3.4769963784939453e-06 0.0
3.5624160529602768e-06 0.0
3.645304408788742e-06 0.0
3.7258096225140816e-06 0.0
3.8039535688875673e-06 0.0
3.879789097945721e-06 0.0
3.953419799758081e-06 0.0
4.0248144814245536e-06 0.0
4.094382326373101e-06 0.0
4.161799913156789e-06 0.0
4.227107101109792e-06 0.0
4.290328240346275e-06 0.0
4.3515109558413364e-06 0.0
4.411093784658563e-06 0.0
4.468693531453685e-06 0.0
4.52444007587371e-06 0.0
4.578325437640182e-06 0.0
4.630223262626039e-06 0.0
4.680207980775949e-06 0.0
4.728362665898724e-06 0.0
4.774918527096605e-06 0.0
4.819556071835199e-06 0.0
4.8623019980341395e-06 0.0
4.903408737999596e-06 0.0
4.9426472190002806e-06 0.0
4.979953648760952e-06 0.0
5.015522483704539e-06 0.0
5.049128156574037e-06 0.0
5.0809293057947505e-06 0.0
5.110828911119239e-06 0.0
5.138769867163278e-06 0.0
5.164930699906054e-06 0.0
5.1891898742023135e-06 0.0
5.211592307494727e-06 0.0
5.232083126233804e-06 0.0
5.250730204193524e-06 0.0
5.267538966458977e-06 0.0
5.282535749415237e-06 0.0
5.2957292992280505e-06 0.0
5.307031593797136e-06 0.0
5.3165215168631126e-06 0.0
5.324225285221765e-06 0.0
5.330192041055673e-06 0.0
5.334426818685119e-06 0.0
5.336917710275742e-06 0.0
5.3376130992806175e-06 0.0
5.336788004957155e-06 0.0
5.334283825745536e-06 0.0
5.330286980698734e-06 0.0
5.324882642069659e-06 0.0
5.317875741370247e-06 0.0
5.309341689804175e-06 0.0
5.299577645190599e-06 0.0
5.28841524445993e-06 0.0
5.276041478959967e-06 0.0
5.262427870219099e-06 0.0
5.2475217979951455e-06 0.0
5.231623088511991e-06 0.0
5.2146487328344505e-06 0.0
5.196678112499982e-06 0.0
5.1778299483332994e-06 0.0
5.158024203893344e-06 0.0
5.137338467387075e-06 0.0
5.1159013846345305e-06 0.0
5.093706298139319e-06 0.0
5.070826189946764e-06 0.0
5.047313429404049e-06 0.0
5.0231863778841555e-06 0.0
4.99850692052083e-06 0.0
4.9733025581281955e-06 0.0
4.9476839357887875e-06 0.0
4.921617071588337e-06 0.0
4.895137757671682e-06 0.0
4.8682856452866715e-06 0.0
4.841100724255224e-06 0.0
4.8136059027048944e-06 0.0
4.78583588515628e-06 0.0
4.757797180314365e-06 0.0
4.729512021429817e-06 0.0
4.701047490588819e-06 0.0
4.672349509129345e-06 0.0
4.643419939876584e-06 0.0
4.614331276906503e-06 0.0
4.585081961164355e-06 0.0
4.555624331656655e-06 0.0
4.525982956240878e-06 0.0
4.496180235167113e-06 0.0
4.466209244623661e-06 0.0
4.436053048734035e-06 0.0
4.405729745446172e-06 0.0
4.375194802979746e-06 0.0
4.344438208680043e-06 0.0
4.313496710937919e-06 0.0
4.282333911155605e-06 0.0
4.250939621864918e-06 0.0
4.219326924011175e-06 0.0
4.187430656370286e-06 0.0
4.155262873072557e-06 0.0
4.122823023331857e-06 0.0
4.0900720025832185e-06 0.0
4.057006241002057e-06 0.0
4.02364016201435e-06 0.0
3.989938165984109e-06 0.0
3.955886124988066e-06 0.0
3.921470725878815e-06 0.0
3.886690768162781e-06 0.0
3.8515317151191134e-06 0.0
3.8159852836089765e-06 0.0
3.7800386074236806e-06 0.0
3.7436938876013076e-06 0.0
3.7069386860273333e-06 0.0
3.6697768916902464e-06 0.0
3.6322056441015502e-06 0.0
3.5942094059253686e-06 0.0
3.555791923964816e-06 0.0
3.516958181099095e-06 0.0
3.4777023859559794e-06 0.0
3.4380348822119535e-06 0.0
3.3979682221979957e-06 0.0
3.357497189553406e-06 0.0
3.316638912114174e-06 0.0
3.2753963338923947e-06 0.0
3.2337749401418573e-06 0.0
3.191793966645264e-06 0.0
3.1494821971939834e-06 0.0
3.106819338906853e-06 0.0
3.063840737528224e-06 0.0
3.0205561515766916e-06 0.0
2.9769955110894174e-06 0.0
2.9331713522267007e-06 0.0
2.8891024105205264e-06 0.0
2.844810729677386e-06 0.0
2.8003186713244125e-06 0.0
2.75564922450805e-06 0.0
2.71082368348295e-06 0.0
2.665860659421913e-06 0.0
2.620791912334713e-06 0.0
2.575639107448158e-06 0.0
2.5304271018463895e-06 0.0
2.485181827680845e-06 0.0
2.43992762072422e-06 0.0
2.394693500002509e-06 0.0
2.3495058783172825e-06 0.0
2.3043908748586822e-06 0.0
2.2593708758214126e-06 0.0
2.214476054113687e-06 0.0
2.1697178824638187e-06 0.0
2.1251428015179377e-06 0.0
2.080764019472718e-06 0.0
2.036603585061487e-06 0.0
1.992695678297551e-06 0.0
1.9490553014006123e-06 0.0
1.9057022299604085e-06 0.0
1.862663378093147e-06 0.0
1.8199610118579381e-06 0.0
1.7776157673759444e-06 0.0
1.7356691909221468e-06 0.0
1.6940981723821871e-06 0.0
1.6529542512324445e-06 0.0
1.612245099998026e-06 0.0
1.5719936539405057e-06 0.0
1.5322249900621982e-06 0.0
1.492945258963117e-06 0.0
1.4541562002392118e-06 0.0
1.4158628884391655e-06 0.0
1.3781158192134587e-06 0.0
1.3409477446406194e-06 0.0
1.304342584251121e-06 0.0
1.268257055401075e-06 0.0
1.2327591693202103e-06 0.0
1.197834003231944e-06 0.0
1.1635058763272549e-06 0.0
1.1297709889452885e-06 0.0
1.0966506154159933e-06 0.0
1.0641422180174927e-06 0.0
1.0322266750057398e-06 0.0
1.0009552017165588e-06 0.0
9.703141894811437e-07 0.0
9.403135143498809e-07 0.0
9.10921388410196e-07 0.0
8.821513829269344e-07 0.0
8.54002339764148e-07 0.0
8.264908455740177e-07 0.0
7.996413998881929e-07 0.0
7.733627978941805e-07 0.0
7.477190314210716e-07 0.0
7.226960016246699e-07 0.0
6.982758029428626e-07 0.0
6.745010510468029e-07 0.0
6.512920512436139e-07 0.0
6.286727305426149e-07 0.0
6.066632004881661e-07 0.0
5.852450059454949e-07 0.0
5.643870945951651e-07 0.0
5.441112696552424e-07 0.0
5.244031187375078e-07 0.0
5.052663404039542e-07 0.0
4.866659681602353e-07 0.0
4.6857750023619833e-07 0.0
4.5106047449482483e-07 0.0
4.1699216181824164e-07 0.0
3.990538630062056e-07 0.0
3.802533726141045e-07 0.0
3.6063018760141754e-07 0.0
3.402520994457447e-07 0.0
3.1917422984715953e-07 0.0
2.974913501132614e-07 0.0
2.75327299764279e-07 0.0
2.528172583693183e-07 0.0
2.301203285165456e-07 0.0
2.074516193707284e-07 0.0
1.8496086313916025e-07 0.0
1.62963858964986e-07 0.0
1.4161409660212146e-07 0.0
1.211705450761978e-07 0.0
1.0200065723276166e-07 0.0
8.429306875280156e-08 0.0
6.80993537203064e-08 0.0
5.3866061732634574e-08 0.0
4.141473132425516e-08 0.0
3.0875996650232376e-08 0.0
2.2242118424001138e-08 0.0
1.553506557750247e-08 0.0
1.0285393558532015e-08 0.0
6.547861860054454e-09 0.0
3.911519041699471e-09 0.0
2.207010931915846e-09 0.0
1.1681477380004234e-09 0.0
5.679428703732203e-10 0.0
2.5512826174125053e-10 0.0
1.034272830926149e-10 0.0
3.722684282425621e-11 0.0
1.14686270621358e-11 0.0
3.1364802880262106e-12 0.0
7.009699656992319e-13 0.0
1.2044710676222016e-13 0.0
1.539296470279401e-14 0.0
1.4431306631978685e-15 0.0
1.3170248946166292e-16 0.0
1.0450495360805914e-17 0.0
1.0145397372348958e-17 0.0
4.498134671339756e-18 0.0
1.2797325636448036e-17 0.0
4.686359697681141e-17 0.0
4.1802161907156406e-17 0.0
6.434312849199453e-17 0.0
7.360131450683971e-17 0.0
5.4465145498964685e-17 0.0
3.660434623565508e-17 0.0
5.926893256315959e-17 0.0
4.638020876659101e-17 0.0
4.329550731250189e-18 0.0
3.569989941084788e-17 0.0
5.866065985549364e-17 0.0
3.354782727961947e-17 0.0
-1.445633956223807e-17 0.0
-2.3594444971979672e-17 0.0
1.347239247771405e-16 0.0
8.013097121749012e-17 0.0
8.03269937420896e-18 0.0
1.8619454778723204e-16 0.0
2.5857156832713865e-16 0.0
4.9012740000864826e-17 0.0
-9.740401155221817e-18 0.0
-4.113074960728304e-17 0.0
-9.895921078806436e-17 0.0
1.897836456818038e-16 0.0
5.704402020798455e-17 0.0
-1.7072178292542654e-16 0.0
3.621980813199024e-16 0.0
-1.3806018601012718e-16 0.0
2.4510021353755876e-16 0.0
-2.079059439638489e-16 0.0
-1.74053848327724e-16 0.0
7.175242770850345e-16 0.0
-7.418500327739151e-17 0.0
-3.8207892235472326e-16 0.0
1.9026050990469036e-16 0.0
-2.566632105750562e-16 0.0
0.0 0.009234165287259784
0.0 0.022109785930453353
0.0 0.040062852071502494
0.0 0.06509563926319202
-3.2604678210007984e-16 0.1
-5.264847528266421e-16 0.1
6.400003370146546e-15 0.1
-7.328730314269172e-15 0.1
0.0 0.09234095951662688
0.0 0.08526779443702853
0.0 0.0787356878349783
0.0 0.07270325358168153
0.0 0.06713226878995315
0.0 0.0619874333109251
0.0 0.057236152337954954
0.0 0.05284831692952338
0.0 0.04879612844994855
0.0 0.04505391065783969
0.0 0.041597952827122316
0.0 0.03840635724257305
0.0 0.03545890171822263
0.0 0.03273691087332876
0.0 0.030223137736032926
0.0 0.0279016548382062
0.0 0.02575775300196125
0.0 0.02377784835211413
0.0 0.021949395807803657
0.0 0.020260810255896072
0.0 0.018701392223653128
0.0 0.017261261595035427
0.0 0.0159312933366808
0.0 0.014703060372941027
0.0 0.013568780782904395
0.0 0.012521267482861557
0.0 0.011553883413523878
0.0 0.010660499143838034
0.0 0.009835453922849662
0.0 0.009073520329684911
0.0 0.00836987060597153
0.0 0.007720046324865143
0.0 0.007119929924049363
0.0 0.006565719071270124
0.0 0.006053907150264022
0.0 0.00558120768451067
0.0 0.005145206155632346
0.0 0.004745395466620324
0.0 0.004379438385853045
0.0 0.00404322947110326
0.0 0.0037357224597280077
0.0 0.0034542258404040476
0.0 0.0031973097239726
0.0 0.002963920002583478
0.0 0.002751813510179761
0.0 0.0025595473777180722
0.0 0.0023850623204358687
0.0 0.0022276711174669347
0.0 0.0020858850921354898
0.0 0.0019585213080710686
0.0 0.0018452479685779751
0.0 0.0017445229508030512
0.0 0.0016555585451586848
0.0 0.0015776973413690312
0.0 0.001509870309818975
0.0 0.0014518567019414284
0.0 0.0014024890473032228
0.0 0.001361259556366551
0.0 0.0013272223022191732
0.0 0.0012995810680089266
0.0 0.0012774226766020884
0.0 0.0012603452400565271
0.0 0.0012477720100809388
0.0 0.0012379451967856894
0.0 0.0012315543048822175
0.0 0.0012263271163649692
0.0 0.001223062093105922
0.0 0.0012209125824071952
0.0 0.0012193370035816734
0.0 0.0012182269146082778
0.0 0.001217093486773991
0.0 0.0012160342839162576
0.0 0.00121474179649616
0.0 0.0012132805930707578
0.0 0.001211548023923629
0.0 0.0012097409932807018
0.0 0.0012077803682527051
0.0 0.0012056907932214442
0.0 0.001203483799045072
0.0 0.0012010752587960347
0.0 0.001198708120256974
0.0 0.001196400455340005
0.0 0.0011941433495041246
-1.0419682795073563e-12 0.0049272451114240915
1.0141027380856034e-05 0.0027812610808359856
5.1779149842999615e-05 0.0015845226686225426
7.858180856128071e-05 0.0010654732072666463
1.4892562449122322e-05 0.0014040942280695837
2.8727567519821266e-08 0.002259800632631108
0.00010108608150730843 0.0009119271509792247
3.0158106420745015e-06 0.0012873839806161616
1.6673160103779312e-05 0.0007984223477023723
8.732679950937459e-06 0.0007656723524385544
7.836136522941968e-06 0.0007075055482992709
5.103278819611846e-06 0.0006768816777664893
-3.416586126802791e-17 0.014973736461407969
1.9521850033647015e-06 0.0006659227110912337
1.2945673276519428e-05 0.0005258716388046848
-1.3804517956439708e-05 0.00045492494593321636
1.4937837221125765e-08 0.0011704215005682202
5.1517983033922325e-05 0.0010504916793879788
-1.4064631926935302e-05 0.00039226307165346334
-4.575641584634776e-06 0.000419916626847988
1.05901230586455e-06 0.0003965374628769128
4.76814078598477e-06 0.0003747236990633427
5.8909085670900574e-06 0.0003771252435681217