# vtk DataFile Version 3.0
Some data
ASCII
DATASET UNSTRUCTURED_GRID
POINTS 7930 float
0.0 0.0 0.0
0.0 10.0 0.0
10.0 10.0 0.0
10.0 0.0 0.0
0.5 0.0 0.0
0.0009999999999981016 0.0 0.0
0.001999999999996203 0.0 0.0
0.002999999999994305 0.0 0.0
0.003999999999992409 0.0 0.0
0.004999999999990531 0.0 0.0
0.005999999999988653 0.0 0.0
0.006999999999986775 0.0 0.0
0.007999999999984898 0.0 0.0
0.008999999999983018 0.0 0.0
0.009999999999981142 0.0 0.0
0.01099999999997926 0.0 0.0
0.01199999999997736 0.0 0.0
0.0129999999999754 0.0 0.0
0.01399999999997343 0.0 0.0
0.01499999999997147 0.0 0.0
0.01599999999996944 0.0 0.0
0.0169999999999673 0.0 0.0
0.01799999999996516 0.0 0.0
0.01899999999996302 0.0 0.0
0.01999999999996084 0.0 0.0
0.02099999999995862 0.0 0.0
0.02199999999995639 0.0 0.0
0.02299999999995417 0.0 0.0
0.02399999999995195 0.0 0.0
0.02499999999994972 0.0 0.0
0.0259999999999475 0.0 0.0
0.02699999999994527 0.0 0.0
0.02799999999994315 0.0 0.0
0.0289999999999411 0.0 0.0
0.02999999999993905 0.0 0.0
0.030999999999937 0.0 0.0
0.03199999999993521 0.0 0.0
0.0329999999999335 0.0 0.0
0.0339999999999318 0.0 0.0
0.03499999999993009 0.0 0.0
0.03599999999992853 0.0 0.0
0.036999999999927 0.0 0.0
0.03799999999992547 0.0 0.0
0.03899999999992394 0.0 0.0
0.03999999999992241 0.0 0.0
0.04099999999992088 0.0 0.0
0.04199999999991934 0.0 0.0
0.04299999999991782 0.0 0.0
0.04399999999991629 0.0 0.0
0.04499999999991475 0.0 0.0
0.04599999999991322 0.0 0.0
0.0469999999999117 0.0 0.0
0.04799999999991016 0.0 0.0
0.04899999999990863 0.0 0.0
0.0499999999999071 0.0 0.0
0.05099999999990557 0.0 0.0
0.05199999999990404 0.0 0.0
0.05299999999990251 0.0 0.0
0.05399999999990097 0.0 0.0
0.05499999999989943 0.0 0.0
0.05599999999989791 0.0 0.0
0.05699999999989638 0.0 0.0
0.05799999999989484 0.0 0.0
0.05899999999989317 0.0 0.0
0.05999999999989129 0.0 0.0
0.06099999999988941 0.0 0.0
0.06199999999988753 0.0 0.0
0.06299999999988531 0.0 0.0
0.06399999999988273 0.0 0.0
0.06499999999988015 0.0 0.0
0.06599999999987759 0.0 0.0
0.0669999999998748 0.0 0.0
0.06799999999987189 0.0 0.0
0.06899999999986897 0.0 0.0
0.06999999999986604 0.0 0.0
0.07099999999986313 0.0 0.0
0.0719999999998602 0.0 0.0
0.07299999999985729 0.0 0.0
0.07399999999985438 0.0 0.0
0.07499999999985145 0.0 0.0
0.07599999999984854 0.0 0.0
0.07699999999984562 0.0 0.0
0.0779999999998427 0.0 0.0
0.07899999999983978 0.0 0.0
0.07999999999983685 0.0 0.0
0.08099999999983394 0.0 0.0
0.08199999999983103 0.0 0.0
0.0829999999998281 0.0 0.0
0.08399999999982519 0.0 0.0
0.08499999999982226 0.0 0.0
0.08599999999981935 0.0 0.0
0.08699999999981643 0.0 0.0
0.0879999999998135 0.0 0.0
0.08899999999981059 0.0 0.0
0.08999999999980766 0.0 0.0
0.09099999999980475 0.0 0.0
0.09199999999980184 0.0 0.0
0.09299999999979891 0.0 0.0
0.093999999999796 0.0 0.0
0.09499999999979307 0.0 0.0
0.09599999999979016 0.0 0.0
0.09699999999978724 0.0 0.0
0.09799999999978432 0.0 0.0
0.0989999999997814 0.0 0.0
0.09999999999977847 0.0 0.0
0.1009999999997756 0.0 0.0
0.1019999999997726 0.0 0.0
0.1029999999997697 0.0 0.0
0.1039999999997668 0.0 0.0
0.1049999999997639 0.0 0.0
0.105999999999761 0.0 0.0
0.106999999999758 0.0 0.0
0.1079999999997551 0.0 0.0
0.1089999999997522 0.0 0.0
0.1099999999997493 0.0 0.0
0.1109999999997464 0.0 0.0
0.1119999999997434 0.0 0.0
0.1129999999997405 0.0 0.0
0.1139999999997376 0.0 0.0
0.1149999999997347 0.0 0.0
0.1159999999997318 0.0 0.0
0.1169999999997288 0.0 0.0
0.1179999999997259 0.0 0.0
0.118999999999723 0.0 0.0
0.1199999999997201 0.0 0.0
0.1209999999997172 0.0 0.0
0.1219999999997143 0.0 0.0
0.1229999999997113 0.0 0.0
0.1239999999997084 0.0 0.0
0.1249999999997055 0.0 0.0
0.1259999999997026 0.0 0.0
0.1269999999996997 0.0 0.0
0.1279999999996967 0.0 0.0
0.1289999999996938 0.0 0.0
0.1299999999996909 0.0 0.0
0.130999999999688 0.0 0.0
0.1319999999996851 0.0 0.0
0.1329999999996822 0.0 0.0
0.1339999999996792 0.0 0.0
0.1349999999996764 0.0 0.0
0.1359999999996734 0.0 0.0
0.1369999999996705 0.0 0.0
0.1379999999996676 0.0 0.0
0.1389999999996647 0.0 0.0
0.1399999999996618 0.0 0.0
0.1409999999996588 0.0 0.0
0.1419999999996559 0.0 0.0
0.142999999999653 0.0 0.0
0.1439999999996501 0.0 0.0
0.1449999999996472 0.0 0.0
0.1459999999996442 0.0 0.0
0.1469999999996414 0.0 0.0
0.1479999999996384 0.0 0.0
0.1489999999996355 0.0 0.0
0.1499999999996326 0.0 0.0
0.1509999999996297 0.0 0.0
0.1519999999996268 0.0 0.0
0.1529999999996239 0.0 0.0
0.1539999999996209 0.0 0.0
0.154999999999618 0.0 0.0
0.1559999999996151 0.0 0.0
0.1569999999996122 0.0 0.0
0.1579999999996093 0.0 0.0
0.1589999999996064 0.0 0.0
0.1599999999996035 0.0 0.0
0.1609999999996005 0.0 0.0
0.1619999999995976 0.0 0.0
0.1629999999995947 0.0 0.0
0.1639999999995918 0.0 0.0
0.1649999999995889 0.0 0.0
0.165999999999586 0.0 0.0
0.1669999999995831 0.0 0.0
0.1679999999995801 0.0 0.0
0.1689999999995772 0.0 0.0
0.1699999999995743 0.0 0.0
0.1709999999995714 0.0 0.0
0.1719999999995685 0.0 0.0
0.1729999999995655 0.0 0.0
0.1739999999995626 0.0 0.0
0.1749999999995597 0.0 0.0
0.1759999999995568 0.0 0.0
0.1769999999995539 0.0 0.0
0.177999999999551 0.0 0.0
0.178999999999548 0.0 0.0
0.1799999999995451 0.0 0.0
0.1809999999995422 0.0 0.0
0.1819999999995393 0.0 0.0
0.1829999999995364 0.0 0.0
0.1839999999995335 0.0 0.0
0.1849999999995305 0.0 0.0
0.1859999999995277 0.0 0.0
0.1869999999995247 0.0 0.0
0.1879999999995218 0.0 0.0
0.1889999999995189 0.0 0.0
0.189999999999516 0.0 0.0
0.1909999999995131 0.0 0.0
0.1919999999995101 0.0 0.0
0.1929999999995072 0.0 0.0
0.1939999999995043 0.0 0.0
0.1949999999995014 0.0 0.0
0.1959999999994985 0.0 0.0
0.1969999999994956 0.0 0.0
0.1979999999994927 0.0 0.0
0.1989999999994897 0.0 0.0
0.1999999999994868 0.0 0.0
0.2009999999994839 0.0 0.0
0.201999999999481 0.0 0.0
0.2029999999994781 0.0 0.0
0.2039999999994752 0.0 0.0
0.2049999999994722 0.0 0.0
0.2059999999994693 0.0 0.0
0.2069999999994664 0.0 0.0
0.2079999999994635 0.0 0.0
0.2089999999994606 0.0 0.0
0.2099999999994577 0.0 0.0
0.2109999999994548 0.0 0.0
0.2119999999994518 0.0 0.0
0.2129999999994489 0.0 0.0
0.213999999999446 0.0 0.0
0.2149999999994431 0.0 0.0
0.2159999999994402 0.0 0.0
0.2169999999994373 0.0 0.0
0.2179999999994343 0.0 0.0
0.2189999999994314 0.0 0.0
0.2199999999994285 0.0 0.0
0.2209999999994256 0.0 0.0
0.2219999999994227 0.0 0.0
0.2229999999994198 0.0 0.0
0.2239999999994168 0.0 0.0
0.2249999999994139 0.0 0.0
0.225999999999411 0.0 0.0
0.2269999999994081 0.0 0.0
0.2279999999994052 0.0 0.0
0.2289999999994023 0.0 0.0
0.2299999999993994 0.0 0.0
0.2309999999993964 0.0 0.0
0.2319999999993935 0.0 0.0
0.2329999999993906 0.0 0.0
0.2339999999993877 0.0 0.0
0.2349999999993848 0.0 0.0
0.2359999999993818 0.0 0.0
0.236999999999379 0.0 0.0
0.237999999999376 0.0 0.0
0.2389999999993731 0.0 0.0
0.2399999999993702 0.0 0.0
0.2409999999993673 0.0 0.0
0.2419999999993644 0.0 0.0
0.2429999999993615 0.0 0.0
0.2439999999993585 0.0 0.0
0.2449999999993556 0.0 0.0
0.2459999999993527 0.0 0.0
0.246999999999351 0.0 0.0
0.2479999999993495 0.0 0.0
0.248999999999348 0.0 0.0
0.2499999999993464 0.0 0.0
0.2509999999993477 0.0 0.0
0.2519999999993489 0.0 0.0
0.2529999999993502 0.0 0.0
0.2539999999993516 0.0 0.0
0.2549999999993542 0.0 0.0
0.2559999999993569 0.0 0.0
0.2569999999993595 0.0 0.0
0.2579999999993621 0.0 0.0
0.2589999999993647 0.0 0.0
0.2599999999993673 0.0 0.0
0.26099999999937 0.0 0.0
0.2619999999993726 0.0 0.0
0.2629999999993753 0.0 0.0
0.2639999999993779 0.0 0.0
0.2649999999993806 0.0 0.0
0.2659999999993832 0.0 0.0
0.2669999999993858 0.0 0.0
0.2679999999993884 0.0 0.0
0.2689999999993911 0.0 0.0
0.2699999999993937 0.0 0.0
0.2709999999993963 0.0 0.0
0.271999999999399 0.0 0.0
0.2729999999994017 0.0 0.0
0.2739999999994043 0.0 0.0
0.2749999999994069 0.0 0.0
0.2759999999994096 0.0 0.0
0.2769999999994122 0.0 0.0
0.2779999999994148 0.0 0.0
0.2789999999994174 0.0 0.0
0.2799999999994201 0.0 0.0
0.2809999999994228 0.0 0.0
0.2819999999994254 0.0 0.0
0.282999999999428 0.0 0.0
0.2839999999994306 0.0 0.0
0.2849999999994333 0.0 0.0
0.2859999999994359 0.0 0.0
0.2869999999994385 0.0 0.0
0.2879999999994411 0.0 0.0
0.2889999999994439 0.0 0.0
0.2899999999994465 0.0 0.0
0.2909999999994491 0.0 0.0
0.2919999999994517 0.0 0.0
0.2929999999994544 0.0 0.0
0.293999999999457 0.0 0.0
0.2949999999994596 0.0 0.0
0.2959999999994622 0.0 0.0
0.2969999999994649 0.0 0.0
0.2979999999994676 0.0 0.0
0.2989999999994702 0.0 0.0
0.2999999999994728 0.0 0.0
0.3009999999994754 0.0 0.0
0.3019999999994781 0.0 0.0
0.3029999999994807 0.0 0.0
0.3039999999994834 0.0 0.0
0.304999999999486 0.0 0.0
0.3059999999994886 0.0 0.0
0.3069999999994913 0.0 0.0
0.3079999999994939 0.0 0.0
0.3089999999994965 0.0 0.0
0.3099999999994992 0.0 0.0
0.3109999999995018 0.0 0.0
0.3119999999995045 0.0 0.0
0.3129999999995071 0.0 0.0
0.3139999999995097 0.0 0.0
0.3149999999995123 0.0 0.0
0.315999999999515 0.0 0.0
0.3169999999995176 0.0 0.0
0.3179999999995203 0.0 0.0
0.3189999999995229 0.0 0.0
0.3199999999995256 0.0 0.0
0.3209999999995282 0.0 0.0
0.3219999999995308 0.0 0.0
0.3229999999995334 0.0 0.0
0.323999999999536 0.0 0.0
0.3249999999995387 0.0 0.0
0.3259999999995414 0.0 0.0
0.326999999999544 0.0 0.0
0.3279999999995466 0.0 0.0
0.3289999999995493 0.0 0.0
0.3299999999995519 0.0 0.0
0.3309999999995545 0.0 0.0
0.3319999999995571 0.0 0.0
0.3329999999995598 0.0 0.0
0.3339999999995625 0.0 0.0
0.3349999999995651 0.0 0.0
0.3359999999995677 0.0 0.0
0.3369999999995703 0.0 0.0
0.337999999999573 0.0 0.0
0.3389999999995756 0.0 0.0
0.3399999999995783 0.0 0.0
0.3409999999995809 0.0 0.0
0.3419999999995835 0.0 0.0
0.3429999999995862 0.0 0.0
0.3439999999995888 0.0 0.0
0.3449999999995914 0.0 0.0
0.345999999999594 0.0 0.0
0.3469999999995967 0.0 0.0
0.3479999999995994 0.0 0.0
0.348999999999602 0.0 0.0
0.3499999999996046 0.0 0.0
0.3509999999996072 0.0 0.0
0.3519999999996099 0.0 0.0
0.3529999999996125 0.0 0.0
0.3539999999996151 0.0 0.0
0.3549999999996178 0.0 0.0
0.3559999999996205 0.0 0.0
0.3569999999996231 0.0 0.0
0.3579999999996257 0.0 0.0
0.3589999999996283 0.0 0.0
0.359999999999631 0.0 0.0
0.3609999999996336 0.0 0.0
0.3619999999996362 0.0 0.0
[...]
POINT_DATA 7930
SCALARS Disp float 2
LOOKUP_TABLE default
0.0 0.0016119694843625984
0.0 0.1
0.0 0.1
0.0 0.0
6.801537894018112e-06 0.0
-6.785043544475375e-06 0.0016119453266560037
-1.357462027892331e-05 0.0016115721414662833
-2.031305841726457e-05 0.0016106704652262486
-2.7133398763511993e-05 0.0016098897955335346
-3.4096873479279006e-05 0.0016091546482049784
-4.0979730498106444e-05 0.0016072673265148166
-4.7430720379611166e-05 0.0016047728975526262
-5.406275076528346e-05 0.001603380559525472
-6.131303340139656e-05 0.001602088267993419
-6.857198808861534e-05 0.001599137017755735
-7.503794971798924e-05 0.001594501741908143
-8.124909090272119e-05 0.0015917827866305317
-8.851716205492455e-05 0.001590120136120579
-9.581969750099427e-05 0.0015861635089717638
-0.00010228107740290893 0.0015802671474376673
-0.00010855388008576257 0.0015761536993498988
-0.00011573400749983413 0.0015734609378068747
-0.0001233665689298054 0.001568314958650398
-0.0001297695887610299 0.0015609349874405847
-0.00013578668684853596 0.0015555496225019107
-0.00014296010251227664 0.0015523324468707156
-0.00015079952291804173 0.001546048543252134
-0.00015736471978514827 0.001536837236524143
-0.00016320141817177043 0.001529917396105695
-0.00017033370423586054 0.0015257946196945904
-0.00017817672722643198 0.0015183313231668908
-0.00018464685363552623 0.0015075241401406472
-0.00019032526566383043 0.0014991382928222288
-0.00019729526869488904 0.001493803573981602
-0.0002052956567244273 0.0014856003235562399
-0.00021205684028528492 0.001473500969228468
-0.00021798533128909362 0.0014634674748689762
-0.000225046133318508 0.0014567489889589958
-0.00023268493918337027 0.0014473207707878203
-0.0002395875045058501 0.0014332338726438954
-0.0002451894762057856 0.0014212196456690953
-0.000251951628363326 0.00141327728864886
-0.0002600591608297344 0.0014027742117539452
-0.00026693786938778726 0.0013871096705516807
-0.0002726249860736082 0.0013733055262289161
-0.000279517200842948 0.001363844890210108
-0.000287328115386977 0.0013517717887181202
-0.00029457933086767587 0.0013340386773907096
-0.0003001702416393335 0.001317679801289465
-0.00030666544701564365 0.0013061269110975374
-0.00031480027319266094 0.0012924765961872889
-0.0003218614994565154 0.0012729867536704555
-0.00032762701812819283 0.0012542113739791236
-0.00033399056947623585 0.0012404122239710411
-0.00034181683001985324 0.0012249934733401689
-0.000349319629566712 0.0012032315592671464
-0.00035497580001228455 0.001181534441134532
-0.0003610358217523415 0.001165357443578466
-0.0003691113444767771 0.0011473445412871234
-0.0003767150757889717 0.0011223561952512179
-0.00038224067994647065 0.0010972049495729112
-0.0003881229351130625 0.0010775908928122278
-0.0003960135339145142 0.0010568843542241595
-0.00040380601975925396 0.0010290062987646207
-0.0004094380881702327 0.0010000155707976072
-0.00041541436532856543 0.0009760308870638201
-0.0004229589895690969 0.0009513173931940489
-0.00043085526400668707 0.0009187081008756502
-0.0004366684611336784 0.0008839509092281005
-0.0004425403975082552 0.000854081182585477
-0.00045011119385991163 0.0008233607740244158
-0.0004580853852139083 0.0007838297396293614
-0.00046377958259172144 0.0007408507854039712
-0.0004695343435305675 0.0007015714660033796
-0.000476730879577008 0.0006606759250792026
-0.00048491994862452734 0.0006085234244142104
-0.0004901095518838263 0.0005498227842939921
-0.0004954712343180752 0.0004914177981516844
-0.0005017212973718862 0.00042632783087744963
-0.0005105803591842494 0.0003361977203468176
-0.0005086358028726219 0.00021662004415229323
-0.0004739429390985299 0.0
-0.00043809677989717187 0.0
-0.00040624768126142416 0.0
-0.0003846429457266944 0.0
-0.00036695503133758723 0.0
-0.00035233773712336727 0.0
-0.0003396922242283091 0.0
-0.00032858092595124106 0.0
-0.00031842007346741925 0.0
-0.0003089993899089154 0.0
-0.00030037366885539305 0.0
-0.0002923424648186585 0.0
-0.0002848772066706677 0.0
-0.0002778614715398669 0.0
-0.000271256333079563 0.0
-0.00026502915458408404 0.0
-0.00025912473935484705 0.0
-0.00025351835190500974 0.0
-0.00024820999493556286 0.0
-0.0002431440405202415 0.0
-0.00023826526497614902 0.0
-0.00023360121128709877 0.0
-0.00022910301361972634 0.0
-0.00022479942376919844 0.0
-0.0002206540589881007 0.0
-0.00021667464083054535 0.0
-0.0002128409487742356 0.0
-0.0002091439100002481 0.0
-0.0002055691243513856 0.0
-0.00020208061027509436 0.0
-0.00019871855921103096 0.0
-0.0001954937269330898 0.0
-0.0001922961466774143 0.0
-0.00018921741995119363 0.0
-0.000186229162092866 0.0
-0.0001833078797833833 0.0
-0.0001804677159964974 0.0
-0.00017770255054622684 0.0
-0.0001749978664650369 0.0
-0.00017236409657722863 0.0
-0.00016980118576317413 0.0
-0.00016730330842137489 0.0
-0.00016488338760421028 0.0
-0.00016248084573448155 0.0
-0.0001601599768793399 0.0
-0.00015788445780709037 0.0
-0.00015567035510375497 0.0
-0.00015349083129509339 0.0
-0.00015136700791947363 0.0
-0.00014928696043615543 0.0
-0.0001472497399672773 0.0
-0.0001452535347108389 0.0
-0.0001432990584386064 0.0
-0.000141383709669929 0.0
-0.00013950470573286607 0.0
-0.0001376606639194355 0.0
-0.00013585701902573774 0.0
-0.00013409433332074356 0.0
-0.00013234780080088185 0.0
-0.00013064350912813557 0.0
-0.0001289670207893915 0.0
-0.00012732276817262883 0.0
-0.0001257071233669676 0.0
-0.0001241208140876745 0.0
-0.00012256494946789968 0.0
-0.00012103793581402168 0.0
-0.00011953850281619228 0.0
-0.00011806270262420309 0.0
-0.00011661389976152461 0.0
-0.00011519073233278758 0.0
-0.0001137903892371681 0.0
-0.00011241431591599574 0.0
-0.00011106017038066935 0.0
-0.0001097257100610712 0.0
-0.00010841178422097649 0.0
-0.00010711780689643762 0.0
-0.00010584141503446276 0.0
-0.00010458255613554114 0.0
-0.00010334314268039165 0.0
-0.00010212416524943488 0.0
-0.00010091415041002409 0.0
-9.972872919031976e-05 0.0
-9.855719359529504e-05 0.0
-9.740192218959884e-05 0.0
-9.626566152741581e-05 0.0
-9.513650461581321e-05 0.0
-9.402971171899489e-05 0.0
-9.29375867664454e-05 0.0
-9.18599682490109e-05 0.0
-9.079786357537255e-05 0.0
-8.975023884794946e-05 0.0
-8.871642996730142e-05 0.0
-8.769592060144858e-05 0.0
-8.668924236376537e-05 0.0
-8.56953665107828e-05 0.0
-8.471307360352546e-05 0.0
-8.374458233358297e-05 0.0
-8.278945681014458e-05 0.0
-8.184558692170487e-05 0.0
-8.09129135450494e-05 0.0
-7.99923668984983e-05 0.0
-7.908393775973854e-05 0.0
-7.818482702597491e-05 0.0
-7.729643700195514e-05 0.0
-7.641923406301002e-05 0.0
-7.555151438067229e-05 0.0
-7.469325305568609e-05 0.0
-7.384475867481062e-05 0.0
-7.300659502934845e-05 0.0
-7.217661126371478e-05 0.0
-7.135571701796326e-05 0.0
-7.054353710872735e-05 0.0
-6.973963164907292e-05 0.0
-6.894446662190814e-05 0.0
-6.815805558787518e-05 0.0
-6.73788813786663e-05 0.0
-6.660761110321035e-05 0.0
-6.58436387148312e-05 0.0
-6.508726714357844e-05 0.0
-6.433922216237755e-05 0.0
-6.359808067726033e-05 0.0
-6.286364127192201e-05 0.0
-6.213725231978768e-05 0.0
-6.141733760339874e-05 0.0
-6.0704741456678776e-05 0.0
-5.999992644853166e-05 0.0
-5.930249133966203e-05 0.0
-5.861206724951059e-05 0.0
-5.7930275827672764e-05 0.0
-5.725376276867626e-05 0.0
-5.6584885805160165e-05 0.0
-5.592354564804274e-05 0.0
-5.5270315890623424e-05 0.0
-5.462424141863204e-05 0.0
-5.3985644857311605e-05 0.0
-5.3354531887107015e-05 0.0
-5.27302337994176e-05 0.0
-5.211305265593358e-05 0.0
-5.150456715039734e-05 0.0
-5.089991810195737e-05 0.0
-5.030317704660927e-05 0.0
-4.971322021895482e-05 0.0
-4.912874751941712e-05 0.0
-4.85502690572522e-05 0.0
-4.7977643409190284e-05 0.0
-4.741035791306934e-05 0.0
-4.684806587728265e-05 0.0
-4.629089436168083e-05 0.0
-4.573857105611309e-05 0.0
-4.519065373286122e-05 0.0
-4.464753541031817e-05 0.0
-4.410861025916777e-05 0.0
-4.357384257626303e-05 0.0
-4.304350574707402e-05 0.0
-4.2516917285823664e-05 0.0
-4.199403974986276e-05 0.0
-4.147550863546022e-05 0.0
-4.0961166718758444e-05 0.0
-4.045047109920487e-05 0.0
-3.9944452302429935e-05 0.0
-3.94424655843777e-05 0.0
-3.894507042460465e-05 0.0
-3.845213547975228e-05 0.0
-3.796356711744411e-05 0.0
-3.747946046697473e-05 0.0
-3.699993329137921e-05 0.0
-3.652512714986091e-05 0.0
-3.605475693750773e-05 0.0
-3.5589216254149856e-05 0.0
-3.5128821112221036e-05 0.0
-3.467272053837759e-05 0.0
-3.422119522804439e-05 0.0
-3.3774664545446204e-05 0.0
-3.3332596395908765e-05 0.0
-3.289494790606982e-05 0.0
-3.2461623482845145e-05 0.0
-3.203229792119394e-05 0.0
-3.160699059774119e-05 0.0
-3.118579493217565e-05 0.0
-3.076808993084564e-05 0.0
-3.0354005233535005e-05 0.0
-2.99433131233878e-05 0.0
-2.953598230663898e-05 0.0
-2.9131851167279812e-05 0.0
-2.873074225117913e-05 0.0
-2.833242802588611e-05 0.0
-2.7936774816843794e-05 0.0
-2.754392869748978e-05 0.0
-2.7153609177991687e-05 0.0
-2.676600405592912e-05 0.0
-2.6381064336720617e-05 0.0
-2.599870333275039e-05 0.0
-2.5618086898765487e-05 0.0
-2.524126317077861e-05 0.0
-2.486606651873978e-05 0.0
-2.449446895587941e-05 0.0
-2.412464620618029e-05 0.0
-2.3757837372514668e-05 0.0
-2.3393928656423483e-05 0.0
-2.3033090287030847e-05 0.0
-2.2675334552155106e-05 0.0
-2.232058349811633e-05 0.0
-2.1969101050673176e-05 0.0
-2.1620887408180193e-05 0.0
-2.1275992321357696e-05 0.0
-2.0934427917331584e-05 0.0
-2.0596239128176937e-05 0.0
-2.026151351329864e-05 0.0
-1.9930036236299826e-05 0.0
-1.9601985440892726e-05 0.0
-1.9277476328617397e-05 0.0
-1.8956350292605302e-05 0.0
-1.8638682618289222e-05 0.0
-1.8323250637726706e-05 0.0
-1.8011621996517972e-05 0.0
-1.7703007710145476e-05 0.0
-1.73974512910874e-05 0.0
-1.709527225233413e-05 0.0
-1.6795006986198682e-05 0.0
-1.6497583370584453e-05 0.0
-1.6202835001430634e-05 0.0
-1.5910630158868265e-05 0.0
-1.5620658280266468e-05 0.0
-1.533291891518326e-05 0.0
-1.5047242771154503e-05 0.0
-1.4763716525099415e-05 0.0
-1.44821205093985e-05 0.0
-1.4202399778179044e-05 0.0
-1.3924564461328497e-05 0.0
-1.3648596478860926e-05 0.0
-1.3374454458099519e-05 0.0
-1.310122319471265e-05 0.0
-1.2830125341244288e-05 0.0
-1.2560789029620896e-05 0.0
-1.2293217841574007e-05 0.0
-1.2027795914357935e-05 0.0
-1.17631792682272e-05 0.0
-1.1500427285857109e-05 0.0
-1.123955741895839e-05 0.0
-1.09805586034813e-05 0.0
-1.0723427636178464e-05 0.0
-1.0468474781809308e-05 0.0
-1.0215480178323184e-05 0.0
-9.964484099578915e-06 0.0
-9.715578636420965e-06 0.0
-9.468883080829468e-06 0.0
-9.224327647502086e-06 0.0
-8.98195491764037e-06 0.0
-8.741987505916025e-06 0.0
-8.504446543383901e-06 0.0
-8.26920283787988e-06 0.0
-8.03628222426365e-06 0.0
-7.805892123368832e-06 0.0
-7.5779702405105616e-06 0.0
-7.352324043570925e-06 0.0
-7.129134510356008e-06 0.0
-6.9082300794674366e-06 0.0
-6.689742883121877e-06 0.0
-6.473513734141652e-06 0.0
-6.259476128109877e-06 0.0
-6.047551437023429e-06 0.0
-5.83771626220382e-06 0.0
-5.630046529570755e-06 0.0
-5.424379862976683e-06 0.0
-5.220589559035306e-06 0.0
-5.0185798831789566e-06 0.0
-4.818368740780216e-06 0.0
-4.61987060170197e-06 0.0
-4.422973425539033e-06 0.0
-4.227635474681727e-06 0.0
-4.033830707424331e-06 0.0
-3.841426802361603e-06 0.0
-3.6503016763482163e-06 0.0
-3.460539968935502e-06 0.0
-3.272083818227596e-06 0.0
-3.084735141373369e-06 0.0
-2.8986585732579705e-06 0.0
-2.7136867172287717e-06 0.0
-2.529835036463275e-06 0.0
-2.3471486722325236e-06 0.0
-2.165566706162121e-06 0.0
-1.985152712563161e-06 0.0
-1.8058622610751563e-06 0.0
-1.627684294245435e-06 0.0
-1.4507521308859223e-06 0.0
-1.2750738716031845e-06 0.0
-1.100662454642477e-06 0.0
-9.275936013493116e-07 0.0
-7.558847127760498e-07 0.0
-5.855821726177464e-07 0.0
-4.168038518989621e-07 0.0
-2.495914587337247e-07 0.0
-8.403423162585492e-08 0.0
8.022961735522836e-08 0.0
2.4259004083183764e-07 0.0
4.031181200004055e-07 0.0
5.617974511862511e-07 0.0
7.185855212594843e-07 0.0
8.734082995700142e-07 0.0
1.0262528213310523e-06 0.0
1.177045048391917e-06 0.0
1.3257280220362347e-06 0.0
1.472515546489018e-06 0.0
1.6170565938533325e-06 0.0
1.7592352465285214e-06 0.0
1.8993782109658513e-06 0.0
2.0374563385989897e-06 0.0
2.1731134902168913e-06 0.0
2.3065429707981406e-06 0.0
2.4378391318370633e-06 0.0
2.5669919064956793e-06 0.0
2.6939181948705736e-06 0.0
2.8188182727327265e-06 0.0
2.9414425583170706e-06 0.0
3.0617706883709564e-06 0.0
3.180190639902599e-06 0.0
3.2965373175914546e-06 0.0
3.410834808679931e-06 0.0
3.5233071804133953e-06 0.0
3.6336187527662316e-06 0.0
3.7419680011319933e-06 0.0
3.848493194590564e-06 0.0
3.953058052692259e-06 0.0
4.055720187892457e-06 0.0
4.156730767322641e-06 0.0
4.255962540905299e-06 0.0
4.353419146509852e-06 0.0
4.449115973240066e-06 0.0
4.543155763372169e-06 0.0
4.635522868841737e-06 0.0
4.7262368754886285e-06 0.0
4.815272039769804e-06 0.0
4.902728927568759e-06 0.0
4.988557524583627e-06 0.0
5.072831416797568e-06 0.0
5.155564756794182e-06 0.0
5.2366287794073545e-06 0.0
5.316052480191754e-06 0.0
5.3938670932864785e-06 0.0
5.469989513368495e-06 0.0
5.54446992598385e-06 0.0
5.617372231965436e-06 0.0
5.68856152912176e-06 0.0
5.758109258898482e-06 0.0
5.8259494004561264e-06 0.0
5.892019158230881e-06 0.0
5.95634836964532e-06 0.0
6.019091480338118e-06 0.0
6.079882529957589e-06 0.0
6.138875888998103e-06 0.0
6.196007246761024e-06 0.0
6.2513822897134275e-06 0.0
6.304964834026731e-06 0.0
6.356673811438872e-06 0.0
6.406531007843057e-06 0.0
6.454569533426257e-06 0.0
6.500750182844804e-06 0.0
6.545005818952118e-06 0.0
6.5874647224725035e-06 0.0
6.627994454004399e-06 0.0
6.666691984222611e-06 0.0
6.703535077070817e-06 0.0
6.738558279617276e-06 0.0
6.771936331954507e-06 0.0
6.80341902120955e-06 0.0
6.833118485252218e-06 0.0
6.861067216992932e-06 0.0
6.887367081699038e-06 0.0
6.912028787865712e-06 0.0
6.935185217473118e-06 0.0
6.956649905587038e-06 0.0
6.97661851119978e-06 0.0
6.995147463439684e-06 0.0
7.0121850795425e-06 0.0
7.027864559616911e-06 0.0
7.042256759505757e-06 0.0
7.055365260420798e-06 0.0
7.06724640318926e-06 0.0
7.077949121250405e-06 0.0
7.0874369651736945e-06 0.0
7.0959194907226685e-06 0.0
7.103351427705413e-06 0.0
7.109790830303759e-06 0.0
7.1152759372510425e-06 0.0
7.11980259409108e-06 0.0
7.123478658948775e-06 0.0
7.126369193864406e-06 0.0
7.128542880244382e-06 0.0
7.1299278713800545e-06 0.0
7.130510511671185e-06 0.0
7.130409441585519e-06 0.0
7.1297369715206365e-06 0.0
7.128423823040093e-06 0.0
7.12652815539078e-06 0.0
7.124040301427971e-06 0.0
7.120992588557363e-06 0.0
7.1173657909720605e-06 0.0
7.113178444219207e-06 0.0
7.1084917768348505e-06 0.0
7.103226444335272e-06 0.0
7.097429268905547e-06 0.0
7.091083341578988e-06 0.0
7.084226618608843e-06 0.0
7.0768533695165365e-06 0.0
7.0689479926468424e-06 0.0
7.060476753906219e-06 0.0
7.051408496531376e-06 0.0
7.041849085211968e-06 0.0
7.031688175888856e-06 0.0
7.020928785271173e-06 0.0
7.0095794137001375e-06 0.0
6.997556319653939e-06 0.0
6.984980821604482e-06 0.0
6.971773797000944e-06 0.0
6.957894136164801e-06 0.0
6.943333651742995e-06 0.0
6.9281379739790805e-06 0.0
6.912224988018961e-06 0.0
6.895601165352264e-06 0.0
6.878230988603025e-06 0.0
6.860158910649294e-06 0.0
6.841412009678494e-06 0.0
6.821848281520544e-06 0.0
6.779719111645172e-06 0.0
6.755066455014511e-06 0.0
6.727208114880539e-06 0.0
6.695662451162633e-06 0.0
6.659861292537796e-06 0.0
6.619222997492759e-06 0.0
6.5730415739924875e-06 0.0
6.520514109834525e-06 0.0
6.460801694411997e-06 0.0
6.3929750792604105e-06 0.0
6.316018038228134e-06 0.0
6.2290597833211345e-06 0.0
6.130940209277991e-06 0.0
6.02095899598249e-06 0.0
5.898283740404947e-06 0.0
5.762245398489253e-06 0.0
5.612413264829738e-06 0.0
5.448884295954657e-06 0.0
5.271827982403281e-06 0.0
5.081115055524743e-06 0.0
4.876052821954438e-06 0.0
4.655012278148194e-06 0.0
4.4146642615395135e-06 0.0
4.150263682826741e-06 0.0
3.854238881497359e-06 0.0
3.5195765414838244e-06 0.0
3.1394120639269524e-06 0.0
2.713737000627859e-06 0.0
2.2520327551595206e-06 0.0
1.774462245051255e-06 0.0
1.3123638365210797e-06 0.0
8.977401972773137e-07 0.0
5.567620408641038e-07 0.0
3.111629592408848e-07 0.0
1.519920681285042e-07 0.0
6.310419295859354e-08 0.0
2.1231596625474193e-08 0.0
5.7836983827934344e-09 0.0
1.3355721119010303e-09 0.0
2.2730913638972556e-10 0.0
2.2643640731835206e-11 0.0
1.0667647099508582e-12 0.0
9.964195725738064e-14 0.0
-5.667710748151529e-15 0.0
-2.5048905760893454e-15 0.0
8.015123242881369e-16 0.0
-6.5811199769326e-18 0.0
-9.069049382789226e-17 0.0
-7.885837627436455e-17 0.0
-8.944373034235154e-17 0.0
1.2415418819497663e-17 0.0
2.6319213006006596e-17 0.0
-1.3430112689541201e-17 0.0
-4.604547491542881e-17 0.0
-2.9160013187889914e-17 0.0
-9.238112626754108e-17 0.0
-1.3747770752832234e-16 0.0
-1.8474747176145378e-16 0.0
-1.608554934334863e-17 0.0
2.3842591239776354e-16 0.0
4.672163766443032e-16 0.0
3.7684132740071296e-16 0.0
1.2922095048534796e-16 0.0
-4.873484645003921e-17 0.0
-3.432075018495763e-16 0.0
-2.289497850112716e-16 0.0
-4.5125379462953676e-17 0.0
1.1062903193385982e-16 0.0
-4.2574889428031306e-17 0.0
-2.6386802195046874e-17 0.0
1.4739811613743498e-16 0.0
6.837345044472431e-16 0.0
-1.1736752329709607e-15 0.0
1.1802157409295822e-16 0.0
1.5690478806404603e-15 0.0
-8.277539300996642e-16 0.0
-3.7638682466068994e-16 0.0
5.348953073099565e-16 0.0
-8.36418609721195e-16 0.0
0.0 0.009234165287260098
0.0 0.02210978593045861
0.0 0.04006285207147656
0.0 0.0650956392631451
-1.0991634706353725e-15 0.1
-1.6888226797059844e-15 0.1
1.93591688265803e-14 0.1
-2.1018186226683422e-14 0.1
0.0 0.0923409595166098
0.0 0.08526779443703197
0.0 0.07873568783498296
0.0 0.07270325358166141
0.0 0.06713226878993787
0.0 0.06198743331092784
0.0 0.057236152337959645
0.0 0.05284831692952237
0.0 0.048796128449947664
0.0 0.04505391065784597
0.0 0.04159795282711708
0.0 0.03840635724257239
0.0 0.03545890171822674
0.0 0.03273691087333095
0.0 0.030223137736033353
0.0 0.02790165483820686
0.0 0.02575775300196305
0.0 0.023777848352117433
0.0 0.02194939580780496
0.0 0.02026081025589452
0.0 0.018701392223650606
0.0 0.017261261595041964
0.0 0.015931293336717004
0.0 0.014703060372010388
0.0 0.013568780784374021
0.0 0.012521267468865378
0.0 0.011553883471197785
0.0 0.01066049887230614
0.0 0.009835454236010252
0.0 0.009073518608621533
0.0 0.008369891813015196
0.0 0.007719950893068697
0.0 0.00711976773199785
0.0 0.006569415386861541
0.0 0.006064577816293263
0.0 0.005602184865445284
0.0 0.005177610577328719
0.0 0.004789306169893624
0.0 0.004434932383097348
0.0 0.004112664251051341
0.0 0.0038192551759352084
0.0 0.0035529394120681593
0.0 0.003311436442815444
0.0 0.003092984610892828
0.0 0.0028961964864750844
0.0 0.0027192717247988126
0.0 0.0025607511886774578
0.0 0.0024198985001934945
0.0 0.002294794075331152
0.0 0.002184530185523136
0.0 0.0020889623761123836
0.0 0.0020058183158152662
0.0 0.0019345366791356474
0.0 0.0018745217591389371
0.0 0.001823954333801598
0.0 0.001782447070556416
0.0 0.0017487848819473498
0.0 0.0017222760159948441
0.0 0.0017014757893694232
0.0 0.0016857497944202057
0.0 0.0016739844688668346
0.0 0.0016654776518355708
0.0 0.0016598251507108537
0.0 0.0016552968491545755
0.0 0.0016527925746776242
0.0 0.0016501324366127487
0.0 0.0016484083421711938
0.0 0.00164700331178908
0.0 0.0016455935230092708
0.0 0.0016441259434489517
0.0 0.0016423794145352163
0.0 0.00164057966266827
0.0 0.0016385714838214815
0.0 0.001636426433665612
0.0 0.0016340700483277357
0.0 0.0016316776254253784
0.0 0.0016292016848178635
0.0 0.0016266948333595707
0.0 0.0016241745807290407
0.0 0.001621559772871341
0.0 0.001619020201845449
0.0 0.0016165954680247032
0.0 0.001614282366277
-1.3175607262402575e-08 0.004927311549056853
4.796016910518998e-05 0.002796152897009712
8.970210896579634e-05 0.0016741214056903448
0.00012797932380714398 0.001270287758734538
2.6673632270280467e-05 0.0014060647128073304
7.931285762962852e-06 0.0022618094444361763
0.0001128912101940988 0.0013240409458553284
1.3233958875075571e-05 0.0012842519070673487
1.8137183215460784e-05 0.0008422181061314134
-2.21538478335889e-06 0.000774475799474729
6.092133716997647e-07 0.0007043198918977743
6.725981132485844e-06 0.0006711777630461655
-6.332756873594976e-16 0.014973736461407866
8.51663690822626e-06 0.0006642574765361123