# vtk DataFile Version 3.0
Some data
ASCII
DATASET UNSTRUCTURED_GRID
POINTS 7930 float
0.0 0.0 0.0
0.0 10.0 0.0
10.0 10.0 0.0
10.0 0.0 0.0
0.5 0.0 0.0
0.0009999999999981016 0.0 0.0
0.001999999999996203 0.0 0.0
0.002999999999994305 0.0 0.0
0.003999999999992409 0.0 0.0
0.004999999999990531 0.0 0.0
0.005999999999988653 0.0 0.0
0.006999999999986775 0.0 0.0
0.007999999999984898 0.0 0.0
0.008999999999983018 0.0 0.0
0.009999999999981142 0.0 0.0
0.01099999999997926 0.0 0.0
0.01199999999997736 0.0 0.0
0.0129999999999754 0.0 0.0
0.01399999999997343 0.0 0.0
0.01499999999997147 0.0 0.0
0.01599999999996944 0.0 0.0
0.0169999999999673 0.0 0.0
0.01799999999996516 0.0 0.0
0.01899999999996302 0.0 0.0
0.01999999999996084 0.0 0.0
0.02099999999995862 0.0 0.0
0.02199999999995639 0.0 0.0
0.02299999999995417 0.0 0.0
0.02399999999995195 0.0 0.0
0.02499999999994972 0.0 0.0
0.0259999999999475 0.0 0.0
0.02699999999994527 0.0 0.0
0.02799999999994315 0.0 0.0
0.0289999999999411 0.0 0.0
0.02999999999993905 0.0 0.0
0.030999999999937 0.0 0.0
0.03199999999993521 0.0 0.0
0.0329999999999335 0.0 0.0
0.0339999999999318 0.0 0.0
0.03499999999993009 0.0 0.0
0.03599999999992853 0.0 0.0
0.036999999999927 0.0 0.0
0.03799999999992547 0.0 0.0
0.03899999999992394 0.0 0.0
0.03999999999992241 0.0 0.0
0.04099999999992088 0.0 0.0
0.04199999999991934 0.0 0.0
0.04299999999991782 0.0 0.0
0.04399999999991629 0.0 0.0
0.04499999999991475 0.0 0.0
0.04599999999991322 0.0 0.0
0.0469999999999117 0.0 0.0
0.04799999999991016 0.0 0.0
0.04899999999990863 0.0 0.0
0.0499999999999071 0.0 0.0
0.05099999999990557 0.0 0.0
0.05199999999990404 0.0 0.0
0.05299999999990251 0.0 0.0
0.05399999999990097 0.0 0.0
0.05499999999989943 0.0 0.0
0.05599999999989791 0.0 0.0
0.05699999999989638 0.0 0.0
0.05799999999989484 0.0 0.0
0.05899999999989317 0.0 0.0
0.05999999999989129 0.0 0.0
0.06099999999988941 0.0 0.0
0.06199999999988753 0.0 0.0
0.06299999999988531 0.0 0.0
0.06399999999988273 0.0 0.0
0.06499999999988015 0.0 0.0
0.06599999999987759 0.0 0.0
0.0669999999998748 0.0 0.0
0.06799999999987189 0.0 0.0
0.06899999999986897 0.0 0.0
0.06999999999986604 0.0 0.0
0.07099999999986313 0.0 0.0
0.0719999999998602 0.0 0.0
0.07299999999985729 0.0 0.0
0.07399999999985438 0.0 0.0
0.07499999999985145 0.0 0.0
0.07599999999984854 0.0 0.0
0.07699999999984562 0.0 0.0
0.0779999999998427 0.0 0.0
0.07899999999983978 0.0 0.0
0.07999999999983685 0.0 0.0
0.08099999999983394 0.0 0.0
0.08199999999983103 0.0 0.0
0.0829999999998281 0.0 0.0
0.08399999999982519 0.0 0.0
0.08499999999982226 0.0 0.0
0.08599999999981935 0.0 0.0
0.08699999999981643 0.0 0.0
0.0879999999998135 0.0 0.0
0.08899999999981059 0.0 0.0
0.08999999999980766 0.0 0.0
0.09099999999980475 0.0 0.0
0.09199999999980184 0.0 0.0
0.09299999999979891 0.0 0.0
0.093999999999796 0.0 0.0
0.09499999999979307 0.0 0.0
0.09599999999979016 0.0 0.0
0.09699999999978724 0.0 0.0
0.09799999999978432 0.0 0.0
0.0989999999997814 0.0 0.0
0.09999999999977847 0.0 0.0
0.1009999999997756 0.0 0.0
0.1019999999997726 0.0 0.0
0.1029999999997697 0.0 0.0
0.1039999999997668 0.0 0.0
0.1049999999997639 0.0 0.0
0.105999999999761 0.0 0.0
0.106999999999758 0.0 0.0
0.1079999999997551 0.0 0.0
0.1089999999997522 0.0 0.0
0.1099999999997493 0.0 0.0
0.1109999999997464 0.0 0.0
0.1119999999997434 0.0 0.0
0.1129999999997405 0.0 0.0
0.1139999999997376 0.0 0.0
0.1149999999997347 0.0 0.0
0.1159999999997318 0.0 0.0
0.1169999999997288 0.0 0.0
0.1179999999997259 0.0 0.0
0.118999999999723 0.0 0.0
0.1199999999997201 0.0 0.0
0.1209999999997172 0.0 0.0
0.1219999999997143 0.0 0.0
0.1229999999997113 0.0 0.0
0.1239999999997084 0.0 0.0
0.1249999999997055 0.0 0.0
0.1259999999997026 0.0 0.0
0.1269999999996997 0.0 0.0
0.1279999999996967 0.0 0.0
0.1289999999996938 0.0 0.0
0.1299999999996909 0.0 0.0
0.130999999999688 0.0 0.0
0.1319999999996851 0.0 0.0
0.1329999999996822 0.0 0.0
0.1339999999996792 0.0 0.0
0.1349999999996764 0.0 0.0
0.1359999999996734 0.0 0.0
0.1369999999996705 0.0 0.0
0.1379999999996676 0.0 0.0
0.1389999999996647 0.0 0.0
0.1399999999996618 0.0 0.0
0.1409999999996588 0.0 0.0
0.1419999999996559 0.0 0.0
0.142999999999653 0.0 0.0
0.1439999999996501 0.0 0.0
0.1449999999996472 0.0 0.0
0.1459999999996442 0.0 0.0
0.1469999999996414 0.0 0.0
0.1479999999996384 0.0 0.0
0.1489999999996355 0.0 0.0
0.1499999999996326 0.0 0.0
0.1509999999996297 0.0 0.0
0.1519999999996268 0.0 0.0
0.1529999999996239 0.0 0.0
0.1539999999996209 0.0 0.0
0.154999999999618 0.0 0.0
0.1559999999996151 0.0 0.0
0.1569999999996122 0.0 0.0
0.1579999999996093 0.0 0.0
0.1589999999996064 0.0 0.0
0.1599999999996035 0.0 0.0
0.1609999999996005 0.0 0.0
0.1619999999995976 0.0 0.0
0.1629999999995947 0.0 0.0
0.1639999999995918 0.0 0.0
0.1649999999995889 0.0 0.0
0.165999999999586 0.0 0.0
0.1669999999995831 0.0 0.0
0.1679999999995801 0.0 0.0
0.1689999999995772 0.0 0.0
0.1699999999995743 0.0 0.0
0.1709999999995714 0.0 0.0
0.1719999999995685 0.0 0.0
0.1729999999995655 0.0 0.0
0.1739999999995626 0.0 0.0
0.1749999999995597 0.0 0.0
0.1759999999995568 0.0 0.0
0.1769999999995539 0.0 0.0
0.177999999999551 0.0 0.0
0.178999999999548 0.0 0.0
0.1799999999995451 0.0 0.0
0.1809999999995422 0.0 0.0
0.1819999999995393 0.0 0.0
0.1829999999995364 0.0 0.0
0.1839999999995335 0.0 0.0
0.1849999999995305 0.0 0.0
0.1859999999995277 0.0 0.0
0.1869999999995247 0.0 0.0
0.1879999999995218 0.0 0.0
0.1889999999995189 0.0 0.0
0.189999999999516 0.0 0.0
0.1909999999995131 0.0 0.0
0.1919999999995101 0.0 0.0
0.1929999999995072 0.0 0.0
0.1939999999995043 0.0 0.0
0.1949999999995014 0.0 0.0
0.1959999999994985 0.0 0.0
0.1969999999994956 0.0 0.0
0.1979999999994927 0.0 0.0
0.1989999999994897 0.0 0.0
0.1999999999994868 0.0 0.0
0.2009999999994839 0.0 0.0
0.201999999999481 0.0 0.0
0.2029999999994781 0.0 0.0
0.2039999999994752 0.0 0.0
0.2049999999994722 0.0 0.0
0.2059999999994693 0.0 0.0
0.2069999999994664 0.0 0.0
0.2079999999994635 0.0 0.0
0.2089999999994606 0.0 0.0
0.2099999999994577 0.0 0.0
0.2109999999994548 0.0 0.0
0.2119999999994518 0.0 0.0
0.2129999999994489 0.0 0.0
0.213999999999446 0.0 0.0
0.2149999999994431 0.0 0.0
0.2159999999994402 0.0 0.0
0.2169999999994373 0.0 0.0
0.2179999999994343 0.0 0.0
0.2189999999994314 0.0 0.0
0.2199999999994285 0.0 0.0
0.2209999999994256 0.0 0.0
0.2219999999994227 0.0 0.0
0.2229999999994198 0.0 0.0
0.2239999999994168 0.0 0.0
0.2249999999994139 0.0 0.0
0.225999999999411 0.0 0.0
0.2269999999994081 0.0 0.0
0.2279999999994052 0.0 0.0
0.2289999999994023 0.0 0.0
0.2299999999993994 0.0 0.0
0.2309999999993964 0.0 0.0
0.2319999999993935 0.0 0.0
0.2329999999993906 0.0 0.0
0.2339999999993877 0.0 0.0
0.2349999999993848 0.0 0.0
0.2359999999993818 0.0 0.0
0.236999999999379 0.0 0.0
0.237999999999376 0.0 0.0
0.2389999999993731 0.0 0.0
0.2399999999993702 0.0 0.0
0.2409999999993673 0.0 0.0
0.2419999999993644 0.0 0.0
0.2429999999993615 0.0 0.0
0.2439999999993585 0.0 0.0
0.2449999999993556 0.0 0.0
0.2459999999993527 0.0 0.0
0.246999999999351 0.0 0.0
0.2479999999993495 0.0 0.0
0.248999999999348 0.0 0.0
0.2499999999993464 0.0 0.0
0.2509999999993477 0.0 0.0
0.2519999999993489 0.0 0.0
0.2529999999993502 0.0 0.0
0.2539999999993516 0.0 0.0
0.2549999999993542 0.0 0.0
0.2559999999993569 0.0 0.0
0.2569999999993595 0.0 0.0
0.2579999999993621 0.0 0.0
0.2589999999993647 0.0 0.0
0.2599999999993673 0.0 0.0
0.26099999999937 0.0 0.0
0.2619999999993726 0.0 0.0
0.2629999999993753 0.0 0.0
0.2639999999993779 0.0 0.0
0.2649999999993806 0.0 0.0
0.2659999999993832 0.0 0.0
0.2669999999993858 0.0 0.0
0.2679999999993884 0.0 0.0
0.2689999999993911 0.0 0.0
0.2699999999993937 0.0 0.0
0.2709999999993963 0.0 0.0
0.271999999999399 0.0 0.0
0.2729999999994017 0.0 0.0
0.2739999999994043 0.0 0.0
0.2749999999994069 0.0 0.0
0.2759999999994096 0.0 0.0
0.2769999999994122 0.0 0.0
0.2779999999994148 0.0 0.0
0.2789999999994174 0.0 0.0
0.2799999999994201 0.0 0.0
0.2809999999994228 0.0 0.0
0.2819999999994254 0.0 0.0
0.282999999999428 0.0 0.0
0.2839999999994306 0.0 0.0
0.2849999999994333 0.0 0.0
0.2859999999994359 0.0 0.0
0.2869999999994385 0.0 0.0
0.2879999999994411 0.0 0.0
0.2889999999994439 0.0 0.0
0.2899999999994465 0.0 0.0
0.2909999999994491 0.0 0.0
0.2919999999994517 0.0 0.0
0.2929999999994544 0.0 0.0
0.293999999999457 0.0 0.0
0.2949999999994596 0.0 0.0
0.2959999999994622 0.0 0.0
0.2969999999994649 0.0 0.0
0.2979999999994676 0.0 0.0
0.2989999999994702 0.0 0.0
0.2999999999994728 0.0 0.0
0.3009999999994754 0.0 0.0
0.3019999999994781 0.0 0.0
0.3029999999994807 0.0 0.0
0.3039999999994834 0.0 0.0
0.304999999999486 0.0 0.0
0.3059999999994886 0.0 0.0
0.3069999999994913 0.0 0.0
0.3079999999994939 0.0 0.0
0.3089999999994965 0.0 0.0
0.3099999999994992 0.0 0.0
0.3109999999995018 0.0 0.0
0.3119999999995045 0.0 0.0
0.3129999999995071 0.0 0.0
0.3139999999995097 0.0 0.0
0.3149999999995123 0.0 0.0
0.315999999999515 0.0 0.0
0.3169999999995176 0.0 0.0
0.3179999999995203 0.0 0.0
0.3189999999995229 0.0 0.0
0.3199999999995256 0.0 0.0
0.3209999999995282 0.0 0.0
0.3219999999995308 0.0 0.0
0.3229999999995334 0.0 0.0
0.323999999999536 0.0 0.0
0.3249999999995387 0.0 0.0
0.3259999999995414 0.0 0.0
0.326999999999544 0.0 0.0
0.3279999999995466 0.0 0.0
0.3289999999995493 0.0 0.0
0.3299999999995519 0.0 0.0
0.3309999999995545 0.0 0.0
0.3319999999995571 0.0 0.0
0.3329999999995598 0.0 0.0
0.3339999999995625 0.0 0.0
0.3349999999995651 0.0 0.0
0.3359999999995677 0.0 0.0
0.3369999999995703 0.0 0.0
0.337999999999573 0.0 0.0
0.3389999999995756 0.0 0.0
0.3399999999995783 0.0 0.0
0.3409999999995809 0.0 0.0
0.3419999999995835 0.0 0.0
0.3429999999995862 0.0 0.0
0.3439999999995888 0.0 0.0
0.3449999999995914 0.0 0.0
0.345999999999594 0.0 0.0
0.3469999999995967 0.0 0.0
0.3479999999995994 0.0 0.0
0.348999999999602 0.0 0.0
0.3499999999996046 0.0 0.0
0.3509999999996072 0.0 0.0
0.3519999999996099 0.0 0.0
0.3529999999996125 0.0 0.0
0.3539999999996151 0.0 0.0
0.3549999999996178 0.0 0.0
0.3559999999996205 0.0 0.0
0.3569999999996231 0.0 0.0
0.3579999999996257 0.0 0.0
0.3589999999996283 0.0 0.0
0.359999999999631 0.0 0.0
0.3609999999996336 0.0 0.0
0.3619999999996362 0.0 0.0
[...]
POINT_DATA 7930
SCALARS Disp float 2
LOOKUP_TABLE default
0.0 0.0012752160969970651
0.0 0.1
0.0 0.1
0.0 0.0
1.4093619007648475e-06 0.0
-6.73634940847805e-06 0.0012751767149027252
-1.3484621045840333e-05 0.0012747439866885367
-2.0170281245363073e-05 0.0012736774604519144
-2.6919985808104176e-05 0.0012727296633316626
-3.3889110082717e-05 0.0012719548588626972
-4.0950569632632905e-05 0.0012698879532788586
-4.7499988190597825e-05 0.0012665333335529338
-5.394677983515138e-05 0.0012642252681045402
-6.106170688704103e-05 0.0012626324208794872
-6.844138947944867e-05 0.0012596092775698797
-7.520791381057318e-05 0.001253955513118658
-8.133663304669706e-05 0.0012496885525371826
-8.834406416599673e-05 0.0012471172036816573
-9.568369131875354e-05 0.0012426723689578627
-0.00010235471560045045 0.0012356124541439736
-0.00010851917014158773 0.001229742767359008
-0.00011544183973922963 0.0012259155816715492
-0.00012323702731956935 0.0012200204420491309
-0.00013006597367585387 0.00121098154582169
-0.00013597174397133205 0.0012029990275482572
-0.00014271727045545742 0.0011981548481970414
-0.00015056488710576044 0.0011909780396692751
-0.00015749188748430962 0.0011799355382188439
-0.00016330144228852555 0.0011701153881532665
-0.0001700513119512159 0.001163788810464132
-0.000178023875619805 0.0011551423416693424
-0.00018496649115765882 0.0011420052331017148
-0.0001908259508379279 0.0011299176474365484
-0.00019745360155664306 0.0011213439755679252
-0.00020538210818798707 0.0011108645682235733
-0.00021237993824803372 0.0010957636246084082
-0.00021826702346795784 0.0010814318516781528
-0.00022483601372244355 0.0010710300922067227
-0.00023238076407569025 0.0010591186974424713
-0.0002397588694430783 0.0010415983044646548
-0.0002457209441522392 0.001024371470596894
-0.00025221054570965916 0.001011350023221946
-0.00026025426259587193 0.0009967894962267794
-0.0002674486763080547 0.0009761774338368106
-0.0002730852066643262 0.0009555975256906849
-0.0002792112368387589 0.0009398005827015
-0.00028657748406010785 0.0009229189074672523
-0.0002940686175905381 0.0008994043660445109
-0.0002999715969059244 0.0008751028685012268
-0.00030603426923051603 0.0008553493930234173
-0.0003140041843810764 0.0008345281524069484
-0.00032160285223693406 0.0008067561509631061
-0.00032744841777905136 0.0007769646147158786
-0.00033338149840461657 0.000751558884035171
-0.00034075422889249347 0.0007251615219221178
-0.00034870497359422523 0.0006908667917869583
-0.0003542800839944883 0.0006534133852127486
-0.00035980266720174903 0.0006197029785346853
-0.000367511170485679 0.0005841669651394334
-0.0003756525073396041 0.0005387358129798952
-0.000381518173189312 0.000486981480291935
-0.00038661575637858014 0.00043519504567085385
-0.00039321359757091084 0.00037676540853407554
-0.00039988552530780826 0.0002967015097674571
-0.0003962689935083016 0.0001898779471472609
-0.0003712569890726784 0.0
-0.0003393834716077381 0.0
-0.0003119641906491287 0.0
-0.000293513857755525 0.0
-0.00027800619720727164 0.0
-0.0002656527801161655 0.0
-0.0002548877412706537 0.0
-0.0002453233909453083 0.0
-0.00023669859212084728 0.0
-0.00022889309177445393 0.0
-0.00022165728434161286 0.0
-0.0002149899064055544 0.0
-0.00020878456350657346 0.0
-0.00020294602689324194 0.0
-0.0001974820747877426 0.0
-0.00019235904045861025 0.0
-0.00018752206811050739 0.0
-0.0001829512908070217 0.0
-0.00017858094692239985 0.0
-0.0001744350553264127 0.0
-0.000170483867171993 0.0
-0.00016669572712777305 0.0
-0.0001630668770538712 0.0
-0.00015960576007740846 0.0
-0.00015626370343720423 0.0
-0.0001530373399624506 0.0
-0.00014993793870561435 0.0
-0.000146948184127922 0.0
-0.00014406697185544046 0.0
-0.00014127357058794153 0.0
-0.00013857009389455196 0.0
-0.00013595223393777204 0.0
-0.00013341114758484072 0.0
-0.00013094682621946416 0.0
-0.00012856222344326861 0.0
-0.0001262460499278102 0.0
-0.00012398716290669634 0.0
-0.00012179300899034948 0.0
-0.00011965219296677041 0.0
-0.00011757541700289115 0.0
-0.00011555216015477533 0.0
-0.00011358707176200413 0.0
-0.00011167478277627235 0.0
-0.00010981311989268528 0.0
-0.00010799848449116904 0.0
-0.00010621783496757838 0.0
-0.0001044867562025113 0.0
-0.00010280959052339086 0.0
-0.00010114536940952258 0.0
-9.952897117120509e-05 0.0
-9.794960963386182e-05 0.0
-9.639840224116808e-05 0.0
-9.488115804905852e-05 0.0
-9.339567585656191e-05 0.0
-9.19363394871906e-05 0.0
-9.050763373399668e-05 0.0
-8.910981665613987e-05 0.0
-8.774092558070341e-05 0.0
-8.640676532453777e-05 0.0
-8.508191555342097e-05 0.0
-8.379343838964958e-05 0.0
-8.252666064343235e-05 0.0
-8.128896840457326e-05 0.0
-8.0068746925915e-05 0.0
-7.887484614224071e-05 0.0
-7.770291322383035e-05 0.0
-7.655264981057095e-05 0.0
-7.542270328902399e-05 0.0
-7.431358563454237e-05 0.0
-7.322398293277673e-05 0.0
-7.215275212177667e-05 0.0
-7.109897940320676e-05 0.0
-7.006503360703061e-05 0.0
-6.905106890889823e-05 0.0
-6.804525534942592e-05 0.0
-6.705967804152426e-05 0.0
-6.608762187933361e-05 0.0
-6.513106816960596e-05 0.0
-6.418833091689683e-05 0.0
-6.325984278877543e-05 0.0
-6.234631547146699e-05 0.0
-6.144709873399893e-05 0.0
-6.056182813347107e-05 0.0
-5.968879539405959e-05 0.0
-5.882985161760687e-05 0.0
-5.79846035949594e-05 0.0
-5.715187121940266e-05 0.0
-5.633237894259533e-05 0.0
-5.552516168191496e-05 0.0
-5.472937155023538e-05 0.0
-5.394533622475419e-05 0.0
-5.3172834659391914e-05 0.0
-5.2410593574742446e-05 0.0
-5.16584139574473e-05 0.0
-5.091726508928565e-05 0.0
-5.018738341969577e-05 0.0
-4.946323930635515e-05 0.0
-4.8751917955164106e-05 0.0
-4.8048342877817134e-05 0.0
-4.735350243879071e-05 0.0
-4.666861855142106e-05 0.0
-4.5987658856105604e-05 0.0
-4.5318207562339145e-05 0.0
-4.465651814997233e-05 0.0
-4.400255444243151e-05 0.0
-4.3356832981070286e-05 0.0
-4.271898162375919e-05 0.0
-4.2088732426386394e-05 0.0
-4.146601594691702e-05 0.0
-4.0851296127659583e-05 0.0
-4.024414060567915e-05 0.0
-3.964425215190343e-05 0.0
-3.905277505060236e-05 0.0
-3.8469540835687006e-05 0.0
-3.7893700384745186e-05 0.0
-3.732533984773945e-05 0.0
-3.676492345951857e-05 0.0
-3.6212310395526154e-05 0.0
-3.566622895890558e-05 0.0
-3.5127375952969864e-05 0.0
-3.459576904557038e-05 0.0
-3.407059562902282e-05 0.0
-3.3551760308507435e-05 0.0
-3.3039169003374514e-05 0.0
-3.2533026439838954e-05 0.0
-3.203222255070711e-05 0.0
-3.1537054654962935e-05 0.0
-3.10472563379297e-05 0.0
-3.056251758609948e-05 0.0
-3.0082943046423667e-05 0.0
-2.9608502902199886e-05 0.0
-2.9138363532937044e-05 0.0
-2.867282328812752e-05 0.0
-2.8211530437981555e-05 0.0
-2.7754679906383434e-05 0.0
-2.730258292244274e-05 0.0
-2.6854469091982117e-05 0.0
-2.6410325923689655e-05 0.0
-2.5970764805680453e-05 0.0
-2.5535059223563833e-05 0.0
-2.5103606396380297e-05 0.0
-2.4676613817997314e-05 0.0
-2.425403229891145e-05 0.0
-2.3835658803646837e-05 0.0
-2.342227943314737e-05 0.0
-2.3012147902543958e-05 0.0
-2.260656619361526e-05 0.0
-2.2205438460162205e-05 0.0
-2.1809097418228934e-05 0.0
-2.1417107044009495e-05 0.0
-2.1029660027320296e-05 0.0
-2.0646698143166072e-05 0.0
-2.026794613223068e-05 0.0
-1.9893643478551745e-05 0.0
-1.9524534542704257e-05 0.0
-1.9158179139942973e-05 0.0
-1.8796707866604197e-05 0.0
-1.8439600474503878e-05 0.0
-1.808621429278143e-05 0.0
-1.773679802875812e-05 0.0
-1.7391358879234137e-05 0.0
-1.7049611616034655e-05 0.0
-1.6711375680076725e-05 0.0
-1.637674649689827e-05 0.0
-1.6045580768176e-05 0.0
-1.5717686138005257e-05 0.0
-1.5393189994155225e-05 0.0
-1.5071761902993772e-05 0.0
-1.4753354655600485e-05 0.0
-1.4438006896602145e-05 0.0
-1.4125429072996542e-05 0.0
-1.3815525844054426e-05 0.0
-1.3508503730181123e-05 0.0
-1.3204288627820902e-05 0.0
-1.2902540646192747e-05 0.0
-1.2603674500255468e-05 0.0
-1.230733398993044e-05 0.0
-1.2013799580372787e-05 0.0
-1.1722928038460751e-05 0.0
-1.1434619928034553e-05 0.0
-1.1148951762278497e-05 0.0
-1.0865956936607693e-05 0.0
-1.0585629592113572e-05 0.0
-1.0307926542871732e-05 0.0
-1.0033067349556327e-05 0.0
-9.761185437480645e-06 0.0
-9.492006281510017e-06 0.0
-9.225635210992234e-06 0.0
-8.9623916011379e-06 0.0
-8.70210322788593e-06 0.0
-8.444740104552848e-06 0.0
-8.190401898989989e-06 0.0
-7.939073825972397e-06 0.0
-7.690674892921575e-06 0.0
-7.445406347269968e-06 0.0
-7.2030322714081184e-06 0.0
-6.963736679401859e-06 0.0
-6.727442172680119e-06 0.0
-6.4941669780667935e-06 0.0
-6.263830643190339e-06 0.0
-6.036386202261839e-06 0.0
-5.811709559719902e-06 0.0
-5.589768676081556e-06 0.0
-5.370565330134409e-06 0.0
-5.153890408634739e-06 0.0
-4.9398395974996614e-06 0.0
-4.7283174447262396e-06 0.0
-4.519168235472315e-06 0.0
-4.312037592591967e-06 0.0
-4.107450161907689e-06 0.0
-3.904646668461074e-06 0.0
-3.7043367254005076e-06 0.0
-3.5055113972278187e-06 0.0
-3.30869232934002e-06 0.0
-3.1136857607162514e-06 0.0
-2.920501830891811e-06 0.0
-2.7290308755368295e-06 0.0
-2.5391324771055127e-06 0.0
-2.3508753928319235e-06 0.0
-2.1641748416690456e-06 0.0
-1.9790199133051565e-06 0.0
-1.795369684570894e-06 0.0
-1.613200684821484e-06 0.0
-1.432559593602908e-06 0.0
-1.2533263385697599e-06 0.0
-1.0756191726624433e-06 0.0
-8.995565547540225e-07 0.0
-7.25073576397335e-07 0.0
-5.523117347042998e-07 0.0
-3.8073252385130627e-07 0.0
-2.1115819618047428e-07 0.0
-4.331973188694066e-08 0.0
1.2255432375933805e-07 0.0
2.862699381138171e-07 0.0
4.484352591642797e-07 0.0
6.083931745672821e-07 0.0
7.66138145422763e-07 0.0
9.215907511659298e-07 0.0
1.0747591589678994e-06 0.0
1.2254724488929213e-06 0.0
1.3737816904857968e-06 0.0
1.5194364389532266e-06 0.0
1.662464162760433e-06 0.0
1.8027564935962733e-06 0.0
1.9402265412430304e-06 0.0
2.0748560233108455e-06 0.0
2.20652271062945e-06 0.0
2.3356468641297484e-06 0.0
2.461667927360828e-06 0.0
2.5845786947462142e-06 0.0
2.70434209045603e-06 0.0
2.8209217312549863e-06 0.0
2.93491057419746e-06 0.0
3.0457422645821695e-06 0.0
3.1535496139343873e-06 0.0
3.2583200725602053e-06 0.0
3.3598985771654827e-06 0.0
3.458367266611716e-06 0.0
3.5538875488075592e-06 0.0
3.646792786599167e-06 0.0
3.736718820170764e-06 0.0
3.823734786948543e-06 0.0
3.908239456792225e-06 0.0
3.989999412559645e-06 0.0
4.068983502692711e-06 0.0
4.145520331603552e-06 0.0
4.2194090239852476e-06 0.0
4.290927429669117e-06 0.0
4.36001675518533e-06 0.0
4.4266926911937615e-06 0.0
4.491256333765913e-06 0.0
4.553617158897483e-06 0.0
4.613910545272509e-06 0.0
4.67212706412528e-06 0.0
4.728410605557232e-06 0.0
4.782825682661149e-06 0.0
4.835451566292163e-06 0.0
4.886336509691534e-06 0.0
4.935405241645115e-06 0.0
4.9827787132696124e-06 0.0
5.028511408188942e-06 0.0
5.072672661962038e-06 0.0
5.115272535320126e-06 0.0
5.156292903353573e-06 0.0
5.195668301159046e-06 0.0
5.233675937957693e-06 0.0
5.270125554000846e-06 0.0
5.305202677264834e-06 0.0
5.338984215548075e-06 0.0
5.371166092663305e-06 0.0
5.401793471299187e-06 0.0
5.431186357343843e-06 0.0
5.459044888470294e-06 0.0
5.485565573070385e-06 0.0
5.5106281763137655e-06 0.0
5.5340647048009865e-06 0.0
5.556224684429554e-06 0.0
5.576907097045295e-06 0.0
5.59613776348558e-06 0.0
5.614021235356119e-06 0.0
5.6303217631626045e-06 0.0
5.645065981156529e-06 0.0
5.658389078755399e-06 0.0
5.6701760234131576e-06 0.0
5.680468113595329e-06 0.0
5.689270796458948e-06 0.0
5.696527892548849e-06 0.0
5.702276492839276e-06 0.0
5.706500226188029e-06 0.0
5.70932853604307e-06 0.0
5.710647318462963e-06 0.0
5.710446611039998e-06 0.0
5.708758586679331e-06 0.0
5.705625260900197e-06 0.0
5.701048908340522e-06 0.0
5.695077893029599e-06 0.0
5.687686839540324e-06 0.0
5.6789337673944134e-06 0.0
5.668993438698305e-06 0.0
5.657679696804319e-06 0.0
5.6449842015209565e-06 0.0
5.631165940228432e-06 0.0
5.6162432329834e-06 0.0
5.600058836815136e-06 0.0
5.582734632276137e-06 0.0
5.564396976444273e-06 0.0
5.545064127510555e-06 0.0
5.524740784496124e-06 0.0
5.50354683856822e-06 0.0
5.481409588673303e-06 0.0
5.4583712846842406e-06 0.0
5.434612474667584e-06 0.0
5.4101070035840345e-06 0.0
5.384897155537032e-06 0.0
5.359090605917208e-06 0.0
5.332605907742981e-06 0.0
5.305545095966156e-06 0.0
5.277979260603976e-06 0.0
5.249898228124582e-06 0.0
5.221361208721064e-06 0.0
5.192450620009923e-06 0.0
5.16316358374704e-06 0.0
5.133531512610653e-06 0.0
5.103585015682734e-06 0.0
5.073365957657859e-06 0.0
5.042896781139e-06 0.0
5.012203923209172e-06 0.0
4.981304292533073e-06 0.0
4.950230271670441e-06 0.0
4.9189933711192364e-06 0.0
4.887619420458707e-06 0.0
4.85612368732842e-06 0.0
4.824502060546158e-06 0.0
4.792768000465224e-06 0.0
4.760932145435091e-06 0.0
4.7289924193675645e-06 0.0
4.696960959157158e-06 0.0
4.6648456221264395e-06 0.0
4.632633333460188e-06 0.0
4.600330746336736e-06 0.0
4.567929932320264e-06 0.0
4.53542100933016e-06 0.0
4.502801247935428e-06 0.0
4.470079499450342e-06 0.0
4.437213286698436e-06 0.0
4.404209498484858e-06 0.0
4.371051183124248e-06 0.0
4.337739688528819e-06 0.0
4.304260238922969e-06 0.0
4.2705930792924324e-06 0.0
4.2367287011568996e-06 0.0
4.2026577082381475e-06 0.0
4.168363443264869e-06 0.0
4.133827170004189e-06 0.0
4.099043932007631e-06 0.0
4.063991079653353e-06 0.0
4.028664513861838e-06 0.0
3.993048625757597e-06 0.0
3.95713499549792e-06 0.0
3.9209326491816676e-06 0.0
3.884397656093886e-06 0.0
3.847531512656622e-06 0.0
3.8103281810661323e-06 0.0
3.7727901845966814e-06 0.0
3.7349012739497275e-06 0.0
3.6966831291965445e-06 0.0
3.6580929557600453e-06 0.0
3.6191516635026036e-06 0.0
3.579860222034063e-06 0.0
3.540207900355883e-06 0.0
3.5002068254393726e-06 0.0
3.4598621842151592e-06 0.0
3.4191736988793717e-06 0.0
3.378147312223212e-06 0.0
3.3367899429189394e-06 0.0
3.2950940915882863e-06 0.0
3.2531046437748194e-06 0.0
3.2108024203734553e-06 0.0
3.1682109247384677e-06 0.0
3.125337973146569e-06 0.0
3.0821975283370978e-06 0.0
3.0388077707255075e-06 0.0
2.995190256435711e-06 0.0
2.9513625338114264e-06 0.0
2.907329834891294e-06 0.0
2.8631098802436063e-06 0.0
2.8187294459566913e-06 0.0
2.7742208913886506e-06 0.0
2.7295907140977417e-06 0.0
2.6848645387289695e-06 0.0
2.6400625087929333e-06 0.0
2.595206661162402e-06 0.0
2.550320556684937e-06 0.0
2.505427408019244e-06 0.0
2.4605479431244088e-06 0.0
2.4157106120086685e-06 0.0
2.3709372979252498e-06 0.0
2.3262535970421003e-06 0.0
2.281677273943115e-06 0.0
2.2372332954461192e-06 0.0
2.1929441287180423e-06 0.0
2.148839080978445e-06 0.0
2.1049498145304265e-06 0.0
2.0612657791573822e-06 0.0
2.017835247862182e-06 0.0
1.9746745432531443e-06 0.0
1.931798459748903e-06 0.0
1.8892539912017719e-06 0.0
1.847015845070732e-06 0.0
1.8051219197402285e-06 0.0
1.763606779376075e-06 0.0
1.722482698229283e-06 0.0
1.681748604805959e-06 0.0
1.6414431856008955e-06 0.0
1.601578447435071e-06 0.0
1.5621808383658124e-06 0.0
1.5232401378421033e-06 0.0
1.4847544525257893e-06 0.0
1.446803538737941e-06 0.0
1.3711081137691656e-06 0.0
1.3301783376974421e-06 0.0
1.2864531313269535e-06 0.0
1.239854053037506e-06 0.0
1.190344742603322e-06 0.0
1.1378805058873825e-06 0.0
1.0824814294790364e-06 0.0
1.024226144901972e-06 0.0
9.632421530686485e-07 0.0
8.997245258480803e-07 0.0
8.34012617786409e-07 0.0
7.66383909314897e-07 0.0
6.974979531923915e-07 0.0
6.277671462120208e-07 0.0
5.57929266736442e-07 0.0
4.890775803818441e-07 0.0
4.2205639551968945e-07 0.0
3.5743881593675395e-07 0.0
2.970576554680153e-07 0.0
2.409906752326992e-07 0.0
1.9033388669096702e-07 0.0
1.45869846588387e-07 0.0
1.0857995061047879e-07 0.0
7.723125770127829e-08 0.0
5.288901885351622e-08 0.0
3.424145411873041e-08 0.0
2.100918689573342e-08 0.0
1.2136002889456042e-08 0.0
6.4909542899521746e-09 0.0
3.2166264701317666e-09 0.0
1.4484895142993197e-09 0.0
5.844556337415508e-10 0.0
2.0404830016222336e-10 0.0
6.33728061351934e-11 0.0
1.638043657835616e-11 0.0
3.3434060932777588e-12 0.0
5.155044310406298e-13 0.0
6.02855233139029e-14 0.0
6.5775864927702865e-15 0.0
5.074628511153297e-16 0.0
3.075044510453947e-17 0.0
9.9315601871773e-18 0.0
1.3074471321374979e-18 0.0
-9.29026085778218e-18 0.0
3.2570446822322036e-17 0.0
8.394992196425359e-17 0.0
1.0559652967103941e-16 0.0
7.983723331813309e-17 0.0
7.241916473190325e-17 0.0
6.863427629243089e-17 0.0
-2.890211927785683e-17 0.0
1.3450442580741893e-18 0.0
7.936899081681653e-17 0.0
6.097340892085962e-17 0.0
6.219193312905784e-17 0.0
5.10126097996387e-17 0.0
1.2303409229947998e-17 0.0
1.3659390802197748e-16 0.0
3.2945875423253853e-17 0.0
-2.576201198115189e-17 0.0
2.716776676549688e-16 0.0
2.9243990804159284e-16 0.0
1.3209493703736416e-17 0.0
7.419528615644123e-18 0.0
-1.586069153964499e-16 0.0
-6.516683650689382e-17 0.0
1.8884951748783775e-16 0.0
4.707028144862945e-17 0.0
-1.5578146890230194e-16 0.0
3.4549091830349615e-16 0.0
-1.2359664234472394e-16 0.0
3.253248031459443e-16 0.0
-3.5401653348090087e-16 0.0
-1.5610878411288855e-16 0.0
8.761482916989973e-16 0.0
-1.5693014548130585e-16 0.0
-4.1929887523107174e-16 0.0
2.367511363117563e-16 0.0
-3.3642409328857574e-16 0.0
0.0 0.009234165287259968
0.0 0.022109785930454314
0.0 0.040062852071497505
0.0 0.06509563926318294
-4.274925520585275e-16 0.1
-6.899470126153225e-16 0.1
8.26796624340224e-15 0.1
-9.37574114580125e-15 0.1
0.0 0.09234095951662492
0.0 0.08526779443702873
0.0 0.07873568783497804
0.0 0.07270325358167729
0.0 0.06713226878995232
0.0 0.06198743331092606
0.0 0.05723615233795615
0.0 0.05284831692952348
0.0 0.04879612844994916
0.0 0.04505391065784005
0.0 0.041597952827120636
0.0 0.038406357242573505
0.0 0.03545890171822285
0.0 0.03273691087332893
0.0 0.030223137736033377
0.0 0.0279016548382062
0.0 0.025757753001961654
0.0 0.023777848352115237
0.0 0.02194939580780347
0.0 0.020260810255896083
0.0 0.018701392223654207
0.0 0.01726126159503567
0.0 0.01593129333668057
0.0 0.014703060372941062
0.0 0.013568780782905123
0.0 0.012521267482862234
0.0 0.011553883413497253
0.0 0.010660499144050805
0.0 0.009835453922460142
0.0 0.009073520330469943
0.0 0.00836987062335646
0.0 0.00772004637198062
0.0 0.0071199288066549245
0.0 0.006565729427020491
0.0 0.006053857819626418
0.0 0.005581493160688065
0.0 0.0051479518020003555
0.0 0.0047510991109258344
0.0 0.00438681886652069
0.0 0.004053374880130209
0.0 0.00374773182398897
0.0 0.003469335947017984
0.0 0.0032157181911462397
0.0 0.002985270363590337
0.0 0.0027762863828801362
0.0 0.0025866664422011946
0.0 0.002415510700620868
0.0 0.002261381761461017
0.0 0.002122510618636334
0.0 0.001998550827558767
0.0 0.0018888789685004913
0.0 0.0017915358333615318
0.0 0.001706109026961991
0.0 0.0016321322370847675
0.0 0.0015679859983580855
0.0 0.0015134771650860271
0.0 0.0014674208027461854
0.0 0.0014293089379023055
0.0 0.0013982985804282247
0.0 0.0013735883367046531
0.0 0.0013540857398559984
0.0 0.0013393211570388217
0.0 0.0013287346450520311
0.0 0.0013204655537423556
0.0 0.001315220583583949
0.0 0.0013107281284894352
0.0 0.0013079347529146082
0.0 0.0013060319005673562
0.0 0.0013045078437449596
0.0 0.0013032894885134118
0.0 0.0013019832264435976
0.0 0.0013007203924577501
0.0 0.0012992252097304758
0.0 0.001297561725321873
0.0 0.0012956363169770609
0.0 0.0012936458654434614
0.0 0.001291526465010524
0.0 0.001289306978603873
0.0 0.0012869995387390907
0.0 0.0012845234625952764
0.0 0.0012821034516563186
0.0 0.0012797671856055364
0.0 0.0012775062294780898
-2.2174288665622926e-10 0.004927244769769182
1.5714126980887565e-05 0.002784235941911429
5.90716912439317e-05 0.0015987786826467008
8.815397958680166e-05 0.001099072335067385
1.8839769843101485e-05 0.0014021061209083276
2.5254047496927143e-07 0.0022598969304902235
0.00010706440634297804 0.0009863472004584411
5.036411040457217e-06 0.001287537517406126
1.6835368626332605e-05 0.0008052408917364549
7.4240383259805766e-06 0.0007665224450831164
8.135395492941806e-06 0.0007056036271569553
6.610295703839991e-06 0.0006764375179088275
-1.5014397595780253e-16 0.014973736461407833
3.6354465756536198e-06 0.0006659909701306484
1.5721570975337412e-05 0.0005486456313760188
-1.834668389535825e-05 0.00046081289578316754
1.1447076110392366e-07 0.0011704413472311858
4.416772106921958e-05 0.001144895332648645
-1.9744843115723754e-05 0.00039430785586615105
-8.88216494583953e-06 0.00042085030621762234
-2.119256578560762e-06 0.00039672683549763545