# vtk DataFile Version 3.0
Some data
ASCII
DATASET UNSTRUCTURED_GRID
POINTS 7930 float
0.0 0.0 0.0
0.0 10.0 0.0
10.0 10.0 0.0
10.0 0.0 0.0
0.5 0.0 0.0
0.0009999999999981016 0.0 0.0
0.001999999999996203 0.0 0.0
0.002999999999994305 0.0 0.0
0.003999999999992409 0.0 0.0
0.004999999999990531 0.0 0.0
0.005999999999988653 0.0 0.0
0.006999999999986775 0.0 0.0
0.007999999999984898 0.0 0.0
0.008999999999983018 0.0 0.0
0.009999999999981142 0.0 0.0
0.01099999999997926 0.0 0.0
0.01199999999997736 0.0 0.0
0.0129999999999754 0.0 0.0
0.01399999999997343 0.0 0.0
0.01499999999997147 0.0 0.0
0.01599999999996944 0.0 0.0
0.0169999999999673 0.0 0.0
0.01799999999996516 0.0 0.0
0.01899999999996302 0.0 0.0
0.01999999999996084 0.0 0.0
0.02099999999995862 0.0 0.0
0.02199999999995639 0.0 0.0
0.02299999999995417 0.0 0.0
0.02399999999995195 0.0 0.0
0.02499999999994972 0.0 0.0
0.0259999999999475 0.0 0.0
0.02699999999994527 0.0 0.0
0.02799999999994315 0.0 0.0
0.0289999999999411 0.0 0.0
0.02999999999993905 0.0 0.0
0.030999999999937 0.0 0.0
0.03199999999993521 0.0 0.0
0.0329999999999335 0.0 0.0
0.0339999999999318 0.0 0.0
0.03499999999993009 0.0 0.0
0.03599999999992853 0.0 0.0
0.036999999999927 0.0 0.0
0.03799999999992547 0.0 0.0
0.03899999999992394 0.0 0.0
0.03999999999992241 0.0 0.0
0.04099999999992088 0.0 0.0
0.04199999999991934 0.0 0.0
0.04299999999991782 0.0 0.0
0.04399999999991629 0.0 0.0
0.04499999999991475 0.0 0.0
0.04599999999991322 0.0 0.0
0.0469999999999117 0.0 0.0
0.04799999999991016 0.0 0.0
0.04899999999990863 0.0 0.0
0.0499999999999071 0.0 0.0
0.05099999999990557 0.0 0.0
0.05199999999990404 0.0 0.0
0.05299999999990251 0.0 0.0
0.05399999999990097 0.0 0.0
0.05499999999989943 0.0 0.0
0.05599999999989791 0.0 0.0
0.05699999999989638 0.0 0.0
0.05799999999989484 0.0 0.0
0.05899999999989317 0.0 0.0
0.05999999999989129 0.0 0.0
0.06099999999988941 0.0 0.0
0.06199999999988753 0.0 0.0
0.06299999999988531 0.0 0.0
0.06399999999988273 0.0 0.0
0.06499999999988015 0.0 0.0
0.06599999999987759 0.0 0.0
0.0669999999998748 0.0 0.0
0.06799999999987189 0.0 0.0
0.06899999999986897 0.0 0.0
0.06999999999986604 0.0 0.0
0.07099999999986313 0.0 0.0
0.0719999999998602 0.0 0.0
0.07299999999985729 0.0 0.0
0.07399999999985438 0.0 0.0
0.07499999999985145 0.0 0.0
0.07599999999984854 0.0 0.0
0.07699999999984562 0.0 0.0
0.0779999999998427 0.0 0.0
0.07899999999983978 0.0 0.0
0.07999999999983685 0.0 0.0
0.08099999999983394 0.0 0.0
0.08199999999983103 0.0 0.0
0.0829999999998281 0.0 0.0
0.08399999999982519 0.0 0.0
0.08499999999982226 0.0 0.0
0.08599999999981935 0.0 0.0
0.08699999999981643 0.0 0.0
0.0879999999998135 0.0 0.0
0.08899999999981059 0.0 0.0
0.08999999999980766 0.0 0.0
0.09099999999980475 0.0 0.0
0.09199999999980184 0.0 0.0
0.09299999999979891 0.0 0.0
0.093999999999796 0.0 0.0
0.09499999999979307 0.0 0.0
0.09599999999979016 0.0 0.0
0.09699999999978724 0.0 0.0
0.09799999999978432 0.0 0.0
0.0989999999997814 0.0 0.0
0.09999999999977847 0.0 0.0
0.1009999999997756 0.0 0.0
0.1019999999997726 0.0 0.0
0.1029999999997697 0.0 0.0
0.1039999999997668 0.0 0.0
0.1049999999997639 0.0 0.0
0.105999999999761 0.0 0.0
0.106999999999758 0.0 0.0
0.1079999999997551 0.0 0.0
0.1089999999997522 0.0 0.0
0.1099999999997493 0.0 0.0
0.1109999999997464 0.0 0.0
0.1119999999997434 0.0 0.0
0.1129999999997405 0.0 0.0
0.1139999999997376 0.0 0.0
0.1149999999997347 0.0 0.0
0.1159999999997318 0.0 0.0
0.1169999999997288 0.0 0.0
0.1179999999997259 0.0 0.0
0.118999999999723 0.0 0.0
0.1199999999997201 0.0 0.0
0.1209999999997172 0.0 0.0
0.1219999999997143 0.0 0.0
0.1229999999997113 0.0 0.0
0.1239999999997084 0.0 0.0
0.1249999999997055 0.0 0.0
0.1259999999997026 0.0 0.0
0.1269999999996997 0.0 0.0
0.1279999999996967 0.0 0.0
0.1289999999996938 0.0 0.0
0.1299999999996909 0.0 0.0
0.130999999999688 0.0 0.0
0.1319999999996851 0.0 0.0
0.1329999999996822 0.0 0.0
0.1339999999996792 0.0 0.0
0.1349999999996764 0.0 0.0
0.1359999999996734 0.0 0.0
0.1369999999996705 0.0 0.0
0.1379999999996676 0.0 0.0
0.1389999999996647 0.0 0.0
0.1399999999996618 0.0 0.0
0.1409999999996588 0.0 0.0
0.1419999999996559 0.0 0.0
0.142999999999653 0.0 0.0
0.1439999999996501 0.0 0.0
0.1449999999996472 0.0 0.0
0.1459999999996442 0.0 0.0
0.1469999999996414 0.0 0.0
0.1479999999996384 0.0 0.0
0.1489999999996355 0.0 0.0
0.1499999999996326 0.0 0.0
0.1509999999996297 0.0 0.0
0.1519999999996268 0.0 0.0
0.1529999999996239 0.0 0.0
0.1539999999996209 0.0 0.0
0.154999999999618 0.0 0.0
0.1559999999996151 0.0 0.0
0.1569999999996122 0.0 0.0
0.1579999999996093 0.0 0.0
0.1589999999996064 0.0 0.0
0.1599999999996035 0.0 0.0
0.1609999999996005 0.0 0.0
0.1619999999995976 0.0 0.0
0.1629999999995947 0.0 0.0
0.1639999999995918 0.0 0.0
0.1649999999995889 0.0 0.0
0.165999999999586 0.0 0.0
0.1669999999995831 0.0 0.0
0.1679999999995801 0.0 0.0
0.1689999999995772 0.0 0.0
0.1699999999995743 0.0 0.0
0.1709999999995714 0.0 0.0
0.1719999999995685 0.0 0.0
0.1729999999995655 0.0 0.0
0.1739999999995626 0.0 0.0
0.1749999999995597 0.0 0.0
0.1759999999995568 0.0 0.0
0.1769999999995539 0.0 0.0
0.177999999999551 0.0 0.0
0.178999999999548 0.0 0.0
0.1799999999995451 0.0 0.0
0.1809999999995422 0.0 0.0
0.1819999999995393 0.0 0.0
0.1829999999995364 0.0 0.0
0.1839999999995335 0.0 0.0
0.1849999999995305 0.0 0.0
0.1859999999995277 0.0 0.0
0.1869999999995247 0.0 0.0
0.1879999999995218 0.0 0.0
0.1889999999995189 0.0 0.0
0.189999999999516 0.0 0.0
0.1909999999995131 0.0 0.0
0.1919999999995101 0.0 0.0
0.1929999999995072 0.0 0.0
0.1939999999995043 0.0 0.0
0.1949999999995014 0.0 0.0
0.1959999999994985 0.0 0.0
0.1969999999994956 0.0 0.0
0.1979999999994927 0.0 0.0
0.1989999999994897 0.0 0.0
0.1999999999994868 0.0 0.0
0.2009999999994839 0.0 0.0
0.201999999999481 0.0 0.0
0.2029999999994781 0.0 0.0
0.2039999999994752 0.0 0.0
0.2049999999994722 0.0 0.0
0.2059999999994693 0.0 0.0
0.2069999999994664 0.0 0.0
0.2079999999994635 0.0 0.0
0.2089999999994606 0.0 0.0
0.2099999999994577 0.0 0.0
0.2109999999994548 0.0 0.0
0.2119999999994518 0.0 0.0
0.2129999999994489 0.0 0.0
0.213999999999446 0.0 0.0
0.2149999999994431 0.0 0.0
0.2159999999994402 0.0 0.0
0.2169999999994373 0.0 0.0
0.2179999999994343 0.0 0.0
0.2189999999994314 0.0 0.0
0.2199999999994285 0.0 0.0
0.2209999999994256 0.0 0.0
0.2219999999994227 0.0 0.0
0.2229999999994198 0.0 0.0
0.2239999999994168 0.0 0.0
0.2249999999994139 0.0 0.0
0.225999999999411 0.0 0.0
0.2269999999994081 0.0 0.0
0.2279999999994052 0.0 0.0
0.2289999999994023 0.0 0.0
0.2299999999993994 0.0 0.0
0.2309999999993964 0.0 0.0
0.2319999999993935 0.0 0.0
0.2329999999993906 0.0 0.0
0.2339999999993877 0.0 0.0
0.2349999999993848 0.0 0.0
0.2359999999993818 0.0 0.0
0.236999999999379 0.0 0.0
0.237999999999376 0.0 0.0
0.2389999999993731 0.0 0.0
0.2399999999993702 0.0 0.0
0.2409999999993673 0.0 0.0
0.2419999999993644 0.0 0.0
0.2429999999993615 0.0 0.0
0.2439999999993585 0.0 0.0
0.2449999999993556 0.0 0.0
0.2459999999993527 0.0 0.0
0.246999999999351 0.0 0.0
0.2479999999993495 0.0 0.0
0.248999999999348 0.0 0.0
0.2499999999993464 0.0 0.0
0.2509999999993477 0.0 0.0
0.2519999999993489 0.0 0.0
0.2529999999993502 0.0 0.0
0.2539999999993516 0.0 0.0
0.2549999999993542 0.0 0.0
0.2559999999993569 0.0 0.0
0.2569999999993595 0.0 0.0
0.2579999999993621 0.0 0.0
0.2589999999993647 0.0 0.0
0.2599999999993673 0.0 0.0
0.26099999999937 0.0 0.0
0.2619999999993726 0.0 0.0
0.2629999999993753 0.0 0.0
0.2639999999993779 0.0 0.0
0.2649999999993806 0.0 0.0
0.2659999999993832 0.0 0.0
0.2669999999993858 0.0 0.0
0.2679999999993884 0.0 0.0
0.2689999999993911 0.0 0.0
0.2699999999993937 0.0 0.0
0.2709999999993963 0.0 0.0
0.271999999999399 0.0 0.0
0.2729999999994017 0.0 0.0
0.2739999999994043 0.0 0.0
0.2749999999994069 0.0 0.0
0.2759999999994096 0.0 0.0
0.2769999999994122 0.0 0.0
0.2779999999994148 0.0 0.0
0.2789999999994174 0.0 0.0
0.2799999999994201 0.0 0.0
0.2809999999994228 0.0 0.0
0.2819999999994254 0.0 0.0
0.282999999999428 0.0 0.0
0.2839999999994306 0.0 0.0
0.2849999999994333 0.0 0.0
0.2859999999994359 0.0 0.0
0.2869999999994385 0.0 0.0
0.2879999999994411 0.0 0.0
0.2889999999994439 0.0 0.0
0.2899999999994465 0.0 0.0
0.2909999999994491 0.0 0.0
0.2919999999994517 0.0 0.0
0.2929999999994544 0.0 0.0
0.293999999999457 0.0 0.0
0.2949999999994596 0.0 0.0
0.2959999999994622 0.0 0.0
0.2969999999994649 0.0 0.0
0.2979999999994676 0.0 0.0
0.2989999999994702 0.0 0.0
0.2999999999994728 0.0 0.0
0.3009999999994754 0.0 0.0
0.3019999999994781 0.0 0.0
0.3029999999994807 0.0 0.0
0.3039999999994834 0.0 0.0
0.304999999999486 0.0 0.0
0.3059999999994886 0.0 0.0
0.3069999999994913 0.0 0.0
0.3079999999994939 0.0 0.0
0.3089999999994965 0.0 0.0
0.3099999999994992 0.0 0.0
0.3109999999995018 0.0 0.0
0.3119999999995045 0.0 0.0
0.3129999999995071 0.0 0.0
0.3139999999995097 0.0 0.0
0.3149999999995123 0.0 0.0
0.315999999999515 0.0 0.0
0.3169999999995176 0.0 0.0
0.3179999999995203 0.0 0.0
0.3189999999995229 0.0 0.0
0.3199999999995256 0.0 0.0
0.3209999999995282 0.0 0.0
0.3219999999995308 0.0 0.0
0.3229999999995334 0.0 0.0
0.323999999999536 0.0 0.0
0.3249999999995387 0.0 0.0
0.3259999999995414 0.0 0.0
0.326999999999544 0.0 0.0
0.3279999999995466 0.0 0.0
0.3289999999995493 0.0 0.0
0.3299999999995519 0.0 0.0
0.3309999999995545 0.0 0.0
0.3319999999995571 0.0 0.0
0.3329999999995598 0.0 0.0
0.3339999999995625 0.0 0.0
0.3349999999995651 0.0 0.0
0.3359999999995677 0.0 0.0
0.3369999999995703 0.0 0.0
0.337999999999573 0.0 0.0
0.3389999999995756 0.0 0.0
0.3399999999995783 0.0 0.0
0.3409999999995809 0.0 0.0
0.3419999999995835 0.0 0.0
0.3429999999995862 0.0 0.0
0.3439999999995888 0.0 0.0
0.3449999999995914 0.0 0.0
0.345999999999594 0.0 0.0
0.3469999999995967 0.0 0.0
0.3479999999995994 0.0 0.0
0.348999999999602 0.0 0.0
0.3499999999996046 0.0 0.0
0.3509999999996072 0.0 0.0
0.3519999999996099 0.0 0.0
0.3529999999996125 0.0 0.0
0.3539999999996151 0.0 0.0
0.3549999999996178 0.0 0.0
0.3559999999996205 0.0 0.0
0.3569999999996231 0.0 0.0
0.3579999999996257 0.0 0.0
0.3589999999996283 0.0 0.0
0.359999999999631 0.0 0.0
0.3609999999996336 0.0 0.0
0.3619999999996362 0.0 0.0
[...]
POINT_DATA 7930
SCALARS Disp float 2
LOOKUP_TABLE default
0.0 0.00016181204336032653
0.0 0.1
0.0 0.1
0.0 0.0
1.3668570446827843e-17 0.0
-7.210089628539945e-06 0.00016033398882499977
-1.3959570710335413e-05 0.00015508527580840697
-2.0099321088129428e-05 0.00014734614402099882
-2.686961134030355e-05 0.00013725459363119591
-3.312447250988187e-05 0.00012335685756613055
-3.949947415423002e-05 0.00010077338548828042
-4.319188213904048e-05 6.563352794132306e-05
-3.997117089304605e-05 0.0
-2.9105989769463756e-05 0.0
-2.4119570671269972e-05 0.0
-1.9853783714178357e-05 0.0
-1.682945751704097e-05 0.0
-1.4681987171634498e-05 0.0
-1.2918341835208623e-05 0.0
-1.1384328042490073e-05 0.0
-1.0086121103135261e-05 0.0
-8.91012994835362e-06 0.0
-7.879297348901171e-06 0.0
-6.959705120414228e-06 0.0
-6.14722965779865e-06 0.0
-5.376893099797378e-06 0.0
-4.699300624392005e-06 0.0
-4.0926026721916064e-06 0.0
-3.5470187367387524e-06 0.0
-3.0660320682698823e-06 0.0
-2.6164011244590414e-06 0.0
-2.216539609681939e-06 0.0
-1.858495532589072e-06 0.0
-1.540385766333281e-06 0.0
-1.2577321516170138e-06 0.0
-1.006900633938709e-06 0.0
-7.864555929543679e-07 0.0
-5.929225791527267e-07 0.0
-4.2639910609052357e-07 0.0
-2.8251727372004103e-07 0.0
-1.5719188383454836e-07 0.0
-5.0605577915948055e-08 0.0
3.940613124460956e-08 0.0
1.1412895649967134e-07 0.0
1.7569358039175716e-07 0.0
2.25499350423061e-07 0.0
2.6510729865941273e-07 0.0
2.956232718311444e-07 0.0
3.190641085146984e-07 0.0
3.3566386636583265e-07 0.0
3.463570289222965e-07 0.0
3.5205929247204025e-07 0.0
3.5324187580755526e-07 0.0
3.511794433006262e-07 0.0
3.4625894665524724e-07 0.0
3.389012690256959e-07 0.0
3.296804189623481e-07 0.0
3.188785368515816e-07 0.0
3.0727233798768306e-07 0.0
2.946685019005068e-07 0.0
2.8140114559042367e-07 0.0
2.677448820448132e-07 0.0
2.5394472638005045e-07 0.0
2.4014663721420523e-07 0.0
2.2648144782131873e-07 0.0
2.1306452355513367e-07 0.0
1.9997840013188045e-07 0.0
1.8729856609198069e-07 0.0
1.7506226965149024e-07 0.0
1.633153777748748e-07 0.0
1.5208827989025049e-07 0.0
1.413958918187942e-07 0.0
1.3124506955396857e-07 0.0
1.2164423336575205e-07 0.0
1.1259015995186963e-07 0.0
1.0407473318135258e-07 0.0
9.607785468460499e-08 0.0
8.858465968126889e-08 0.0
8.157947243900451e-08 0.0
7.504726654751869e-08 0.0
6.896190140860651e-08 0.0
6.330695269200717e-08 0.0
5.804561190901318e-08 0.0
5.3181963561768706e-08 0.0
4.868716073718953e-08 0.0
4.452791936049537e-08 0.0
4.069107232945891e-08 0.0
3.7157012706533624e-08 0.0
3.389223365019483e-08 0.0
3.088955205513923e-08 0.0
2.8140120930141108e-08 0.0
2.5616276985669485e-08 0.0
2.3302746751372364e-08 0.0
2.1183440657243552e-08 0.0
1.9244077011301135e-08 0.0
1.747593463068995e-08 0.0
1.5856708048937587e-08 0.0
1.437826329339065e-08 0.0
1.3029113433197523e-08 0.0
1.1796464666552566e-08 0.0
1.0677320893093882e-08 0.0
9.66012963000928e-09 0.0
8.737773026699814e-09 0.0
7.902139954731554e-09 0.0
7.137046988455206e-09 0.0
6.445373661011174e-09 0.0
5.8161909204113006e-09 0.0
5.2456442263735076e-09 0.0
4.7290879626240504e-09 0.0
4.262955681315036e-09 0.0
3.84035500619559e-09 0.0
3.4587543940733725e-09 0.0
3.112361833929787e-09 0.0
2.8003477620765068e-09 0.0
2.5181817882036855e-09 0.0
2.2638043379577435e-09 0.0
2.034442845731327e-09 0.0
1.8273363849903376e-09 0.0
1.6405737085306599e-09 0.0
1.4729274050896266e-09 0.0
1.3219854129575416e-09 0.0
1.1859413367003882e-09 0.0
1.0632879233731648e-09 0.0
9.530864365021695e-10 0.0
8.554128139366874e-10 0.0
7.655041067397897e-10 0.0
6.85354521830282e-10 0.0
6.135131320008739e-10 0.0
5.493091406557165e-10 0.0
4.911403293729071e-10 0.0
4.392417526335339e-10 0.0
3.9296601758663526e-10 0.0
3.51242217523038e-10 0.0
3.1386739981887937e-10 0.0
2.80322646548854e-10 0.0
2.503472280569656e-10 0.0
2.235091862979589e-10 0.0
1.9948818279884908e-10 0.0
1.7803902472887704e-10 0.0
1.5886790583101647e-10 0.0
1.416160389882171e-10 0.0
1.262947039521719e-10 0.0
1.1258643129998396e-10 0.0
1.0033334785172e-10 0.0
8.938343190210577e-11 0.0
7.961961748723328e-11 0.0
7.090496860699125e-11 0.0
6.313892010156209e-11 0.0
5.620306123453121e-11 0.0
5.001559215050462e-11 0.0
4.451974619744239e-11 0.0
3.9623521419891585e-11 0.0
3.52332591918721e-11 0.0
3.1317135201227163e-11 0.0
2.7846419048274468e-11 0.0
2.4751184228430595e-11 0.0
2.199846795068345e-11 0.0
1.9546775688950466e-11 0.0
1.7358845496217388e-11 0.0
1.54143795055216e-11 0.0
1.3674310750770016e-11 0.0
1.2162484349611255e-11 0.0
1.0782106019672017e-11 0.0
9.566476090713841e-12 0.0
8.489333851485551e-12 0.0
7.526024833284011e-12 0.0
6.686103103302051e-12 0.0
5.921069557970966e-12 0.0
5.248074002287085e-12 0.0
4.653578707347712e-12 0.0
4.12468284226561e-12 0.0
3.655618788706932e-12 0.0
3.238546464207596e-12 0.0
2.8684707047046723e-12 0.0
2.5405961445291766e-12 0.0
2.2491849478706387e-12 0.0
1.9919657482566914e-12 0.0
1.7638074774421628e-12 0.0
1.5609182669752066e-12 0.0
1.3810080288018359e-12 0.0
1.2220341227658162e-12 0.0
1.0812832456066829e-12 0.0
9.561605771209403e-13 0.0
8.455813358967333e-13 0.0
7.478482564016933e-13 0.0
6.60991395519978e-13 0.0
5.843842365121769e-13 0.0
5.168413632621798e-13 0.0
4.568253967851365e-13 0.0
4.034731758105616e-13 0.0
3.564885380626393e-13 0.0
3.1487858816799783e-13 0.0
2.7810689535441877e-13 0.0
2.457146061471351e-13 0.0
2.1694480106376336e-13 0.0
1.914842311861179e-13 0.0
1.6902786862818467e-13 0.0
1.491798916653187e-13 0.0
1.3161331975644364e-13 0.0
1.161786884748908e-13 0.0
1.0252678648614353e-13 0.0
9.041708156982129e-14 0.0
7.977983817508127e-14 0.0
7.034741639506396e-14 0.0
6.204432927830122e-14 0.0
5.470817772653841e-14 0.0
4.820334124871858e-14 0.0
4.249065043288618e-14 0.0
3.7464104571073586e-14 0.0
3.3015962982420104e-14 0.0
2.9100936247359055e-14 0.0
2.5648066352691858e-14 0.0
2.2596548117525554e-14 0.0
1.9902283916860098e-14 0.0
1.7531135481671498e-14 0.0
1.5445943249675166e-14 0.0
1.3603295820065722e-14 0.0
1.1978575897349643e-14 0.0
1.0549474940108381e-14 0.0
9.283765942239596e-15 0.0
8.173454577368918e-15 0.0
7.193184911357478e-15 0.0
6.331003866641411e-15 0.0
5.57261756555093e-15 0.0
4.903493023769991e-15 0.0
4.315503955647773e-15 0.0
3.797529875109367e-15 0.0
3.340608795436197e-15 0.0
2.9383940067597444e-15 0.0
2.5840808194454815e-15 0.0
2.2735525445493435e-15 0.0
1.9999940997995095e-15 0.0
1.7590810880721705e-15 0.0
1.5471699024327765e-15 0.0
1.3597286804450703e-15 0.0
1.1955642640391363e-15 0.0
1.0516289936290482e-15 0.0
9.245626665204802e-16 0.0
8.130130027636002e-16 0.0
7.151640107413547e-16 0.0
6.2891888302370925e-16 0.0
5.530204962229357e-16 0.0
4.864744250355407e-16 0.0
4.2793416817507e-16 0.0
3.764157480538336e-16 0.0
3.312123581264975e-16 0.0
2.9157499179138056e-16 0.0
2.565570754909559e-16 0.0
2.258602202319179e-16 0.0
1.9900685164228618e-16 0.0
1.7530582831008187e-16 0.0
1.5457739318778153e-16 0.0
1.3636667886820202e-16 0.0
1.2036535166775697e-16 0.0
1.0634633798014879e-16 0.0
9.401081012738807e-17 0.0
8.318740443426952e-17 0.0
7.372998309178681e-17 0.0
6.538702484267584e-17 0.0
5.805736696050257e-17 0.0
5.1625810648326194e-17 0.0
4.6009147128491633e-17 0.0
4.1095751126543724e-17 0.0
3.6791643294277035e-17 0.0
3.300875545382816e-17 0.0
2.969177290315822e-17 0.0
2.678066550970917e-17 0.0
2.4239222019926252e-17 0.0
2.2009627488424368e-17 0.0
2.0049043586247347e-17 0.0
1.8325498666203993e-17 0.0
1.6816238993499342e-17 0.0
1.5493273351723258e-17 0.0
1.4355522759605905e-17 0.0
1.3332718845461412e-17 0.0
1.2446310685951088e-17 0.0
1.1668925407266119e-17 0.0
1.099272188788908e-17 0.0
1.0392577909938499e-17 0.0
9.864135678286215e-18 0.0
9.404994881186551e-18 0.0
8.999356185575242e-18 0.0
8.636915830058488e-18 0.0
8.319572155700287e-18 0.0
8.038896635397654e-18 0.0
7.801300287770138e-18 0.0
7.596807711797867e-18 0.0
7.416574462256596e-18 0.0
7.267547241344724e-18 0.0
7.142673407446567e-18 0.0
7.039158977229298e-18 0.0
6.9502231496505e-18 0.0
6.8718658955203135e-18 0.0
6.812332355568624e-18 0.0
6.7654826996415506e-18 0.0
6.732604871462559e-18 0.0
6.7116612060743215e-18 0.0
6.702753424324019e-18 0.0
6.700802975687488e-18 0.0
6.7050068033212074e-18 0.0
6.715121793480163e-18 0.0
6.7347982445664665e-18 0.0
6.7580305182541315e-18 0.0
6.795090393242457e-18 0.0
6.8454766980530415e-18 0.0
6.898791707050614e-18 0.0
6.960581373835659e-18 0.0
7.029260485417935e-18 0.0
7.10240827696993e-18 0.0
7.182480727608242e-18 0.0
7.262128257405393e-18 0.0
7.344486902249754e-18 0.0
7.428203457937797e-18 0.0
7.518779959346208e-18 0.0
7.606345671831158e-18 0.0
7.693354743073251e-18 0.0
7.784973330133923e-18 0.0
7.871494828131692e-18 0.0
7.948514234227375e-18 0.0
8.021689418094958e-18 0.0
8.084194739225173e-18 0.0
8.143873821250449e-18 0.0
8.200335172742708e-18 0.0
8.252972516956181e-18 0.0
8.308634559157183e-18 0.0
8.366477620605128e-18 0.0
8.424486445186824e-18 0.0
8.485468207327983e-18 0.0
8.545554062780646e-18 0.0
8.603960107356852e-18 0.0
8.665731105607703e-18 0.0
8.728411235331406e-18 0.0
8.787788072211683e-18 0.0
8.840738181555645e-18 0.0
8.889620001506566e-18 0.0
8.936354303830148e-18 0.0
8.982727855709616e-18 0.0
9.032605997266533e-18 0.0
9.07613238444418e-18 0.0
9.124536715856297e-18 0.0
9.17860651743835e-18 0.0
9.2358679188337e-18 0.0
9.300333573715367e-18 0.0
9.364999339999218e-18 0.0
9.432119860550068e-18 0.0
9.50217692531028e-18 0.0
9.572912759422064e-18 0.0
9.636668375988405e-18 0.0
9.702212621391204e-18 0.0
9.760990999410683e-18 0.0
9.813510463328559e-18 0.0
9.854422823032807e-18 0.0
9.895352886889944e-18 0.0
9.931717739937379e-18 0.0
9.965024727756574e-18 0.0
9.990701907044006e-18 0.0
1.0016519214299959e-17 0.0
1.0041369137272446e-17 0.0
1.0061542955539899e-17 0.0
1.0089290406187606e-17 0.0
1.0117481173987832e-17 0.0
1.014655326992257e-17 0.0
1.0175786821007927e-17 0.0
1.0199711484587512e-17 0.0
1.0226540998774972e-17 0.0
1.025234889475291e-17 0.0
1.0284806779668806e-17 0.0
1.0319661659009938e-17 0.0
1.035044984467191e-17 0.0
1.0390082906793533e-17 0.0
1.0434418209580773e-17 0.0
1.0480129127488164e-17 0.0
1.0529357939080188e-17 0.0
1.0576987448646396e-17 0.0
1.06247839061222e-17 0.0
1.0671026784021292e-17 0.0
1.0716603333066741e-17 0.0
1.0760121124906229e-17 0.0
1.0803473184555924e-17 0.0
1.0844515371231405e-17 0.0
1.0888281803174601e-17 0.0
1.0927972078195186e-17 0.0
1.0966055308450473e-17 0.0
1.1003817599132501e-17 0.0
1.1042525424873119e-17 0.0
1.107203433667767e-17 0.0
1.1108058749330365e-17 0.0
1.1140728643842227e-17 0.0
1.1175123626225937e-17 0.0
1.1204242198097189e-17 0.0
1.1238240288725327e-17 0.0
1.1267967398447195e-17 0.0
1.1295870837830535e-17 0.0
1.1326136254307854e-17 0.0
1.1361457501597934e-17 0.0
1.1397018424256572e-17 0.0
1.1434681255415854e-17 0.0
1.1476861246110136e-17 0.0
1.1516414652083162e-17 0.0
1.1558029395979578e-17 0.0
1.1599420634442792e-17 0.0
1.1640550302426873e-17 0.0
1.168148959449509e-17 0.0
1.1713453069844703e-17 0.0
1.1741284781806514e-17 0.0
1.176489984406381e-17 0.0
1.1780613513330901e-17 0.0
1.1796993709581643e-17 0.0
1.1814621627148523e-17 0.0
1.1832825329739508e-17 0.0
1.1851798664407788e-17 0.0
1.1874248483726553e-17 0.0
1.1897511158578584e-17 0.0
1.1918822167865983e-17 0.0
1.1942051940223403e-17 0.0
1.19723358395705e-17 0.0
1.1996975403023062e-17 0.0
1.2017010711224467e-17 0.0
1.2040537825565829e-17 0.0
1.205981328862206e-17 0.0
1.2084909445827099e-17 0.0
1.2107731284304932e-17 0.0
1.2118760443967757e-17 0.0
1.2135218403540285e-17 0.0
1.2146083659479008e-17 0.0
1.215439860557517e-17 0.0
1.2150488430456559e-17 0.0
1.2149594030012058e-17 0.0
1.2145246199111575e-17 0.0
1.2142232306553297e-17 0.0
1.2136103956703826e-17 0.0
1.2139920122981217e-17 0.0
1.2141194125093414e-17 0.0
1.2150821946787995e-17 0.0
1.2161661325392398e-17 0.0
1.2179492838261158e-17 0.0
1.2190095986419901e-17 0.0
1.2206170322356692e-17 0.0
1.2221068990090604e-17 0.0
1.2233632497939355e-17 0.0
1.2250591935952675e-17 0.0
1.2267983872084198e-17 0.0
1.2283308896741399e-17 0.0
1.229526373845464e-17 0.0
1.2299619111307001e-17 0.0
1.229601247046936e-17 0.0
1.2292657975775064e-17 0.0
1.2283409392163115e-17 0.0
1.2271644313898098e-17 0.0
1.2251904338754665e-17 0.0
1.2227299520879009e-17 0.0
1.220122688319972e-17 0.0
1.2177201350157489e-17 0.0
1.215988384098197e-17 0.0
1.2146477841744969e-17 0.0
1.2133036822434426e-17 0.0
1.2121890064222681e-17 0.0
1.2117272935685012e-17 0.0
1.2113801492059481e-17 0.0
1.2108930612011172e-17 0.0
1.2105162418467745e-17 0.0
1.2103194440185305e-17 0.0
1.2110695613400125e-17 0.0
1.2114045956084868e-17 0.0
1.2117847016375668e-17 0.0
1.2125153965889393e-17 0.0
1.2136945140923436e-17 0.0
1.2148641900139423e-17 0.0
1.2168851447123675e-17 0.0
1.2190523320126853e-17 0.0
1.2212762028799126e-17 0.0
1.2233284287510692e-17 0.0
1.2261809999152308e-17 0.0
1.2287894559209707e-17 0.0
1.2313257664617155e-17 0.0
1.233666386507392e-17 0.0
1.2364689163196718e-17 0.0
1.2397930772069888e-17 0.0
1.2432395196486879e-17 0.0
1.2470822415947071e-17 0.0
1.2513923288248943e-17 0.0
1.255188818619071e-17 0.0
1.2589000169256538e-17 0.0
1.2629396206862795e-17 0.0
1.2666943341137377e-17 0.0
1.2704705342487891e-17 0.0
1.274898763049181e-17 0.0
1.2797332509645805e-17 0.0
1.2846949661240533e-17 0.0
1.2895644068359028e-17 0.0
1.2946498637187985e-17 0.0
1.2997073584473241e-17 0.0
1.3051632722290083e-17 0.0
1.3103368336857607e-17 0.0
1.315335293732976e-17 0.0
1.3208536259146817e-17 0.0
1.32599509322505e-17 0.0
1.330860919542113e-17 0.0
1.3362375833465061e-17 0.0
1.3412135541176265e-17 0.0
1.3460765875265902e-17 0.0
1.3508355847806444e-17 0.0
1.3559498015906211e-17 0.0
1.3615232206197427e-17 0.0
1.3722840743093306e-17 0.0
1.3784492228739815e-17 0.0
1.384868315486942e-17 0.0
1.39140797054892e-17 0.0
1.39831585966312e-17 0.0
1.4042224830083138e-17 0.0
1.4106925822297054e-17 0.0
1.417195985816885e-17 0.0
1.4230848587149706e-17 0.0
1.4296960826796848e-17 0.0
1.4374919664425102e-17 0.0
1.4471045255370062e-17 0.0
1.456741153463946e-17 0.0
1.46375951186496e-17 0.0
1.4689758654358927e-17 0.0
1.4724328407509415e-17 0.0
1.4766556269383713e-17 0.0
1.482951757639051e-17 0.0
1.4889147446392707e-17 0.0
1.497728044956878e-17 0.0
1.5059345645263124e-17 0.0
1.5135312419424238e-17 0.0
1.524227795678266e-17 0.0
1.5350246916587796e-17 0.0
1.5450739915071472e-17 0.0
1.5620842622420425e-17 0.0
1.5777507834478543e-17 0.0
1.60768131213089e-17 0.0
1.6268791390063723e-17 0.0
1.637017576969786e-17 0.0
1.6507599018935446e-17 0.0
1.6950902904412502e-17 0.0
1.7230689244048853e-17 0.0
1.7630005776446387e-17 0.0
1.754259242417367e-17 0.0
1.8498858287820654e-17 0.0
1.9339433750227803e-17 0.0
1.9983695407049722e-17 0.0
2.0631418453427905e-17 0.0
2.1528837453896052e-17 0.0
2.189691706222981e-17 0.0
2.3879224149254713e-17 0.0
2.4490133393008527e-17 0.0
2.574513373711557e-17 0.0
2.4943640483665414e-17 0.0
2.777091929882106e-17 0.0
2.993214640478e-17 0.0
2.905213490092213e-17 0.0
3.179817995932527e-17 0.0
3.2437845329015065e-17 0.0
3.5741564799729785e-17 0.0
3.785866192458312e-17 0.0
4.0385500860944474e-17 0.0
4.086152576032544e-17 0.0
4.530455566452583e-17 0.0
4.537496580804442e-17 0.0
4.6160882633438696e-17 0.0
4.906372395317131e-17 0.0
4.817227386632588e-17 0.0
4.9972088567946386e-17 0.0
4.8379268329185305e-17 0.0
5.1652454412673014e-17 0.0
5.042965763553045e-17 0.0
4.9654006836840773e-17 0.0
4.963609566279357e-17 0.0
4.8289755254417687e-17 0.0
4.385284789465737e-17 0.0
3.8406977379635233e-17 0.0
3.258449120857825e-17 0.0
2.7330548993516223e-17 0.0
2.664353747703575e-17 0.0
2.616784967194958e-17 0.0
2.5266014872339744e-17 0.0
2.2530447998257677e-17 0.0
1.8664886501542998e-17 0.0
1.447171474922517e-17 0.0
9.257576372980212e-18 0.0
6.669252495063524e-18 0.0
2.55281160154738e-18 0.0
0.0 0.009234165287256155
0.0 0.022109785930449568
0.0 0.04006285207154369
0.0 0.06509563926325734
-2.5372465678850113e-17 0.1
-2.4381964306257482e-17 0.1
-3.132120326063563e-17 0.1
-4.0761828918039544e-17 0.1
0.0 0.09234095951662379
0.0 0.08526779443703658
0.0 0.07873568783499921
0.0 0.07270325358170406
0.0 0.06713226878993213
0.0 0.061987433310909563
0.0 0.05723615233794549
0.0 0.05284831692951252
0.0 0.04879612844994431
0.0 0.04505391065784688
0.0 0.041597952827127284
0.0 0.03840635724257017
0.0 0.03545890171821887
0.0 0.032736910873324
0.0 0.030223137736026896
0.0 0.027901654838203116
0.0 0.02575775300196011
0.0 0.02377784835211389
0.0 0.021949395807802845
0.0 0.02026081025589378
0.0 0.01870139222365235
0.0 0.01726126159503461
0.0 0.015931293336680256
0.0 0.01470306037294028
0.0 0.013568780782904495
0.0 0.012521267482861325
0.0 0.011553883413523595
0.0 0.010660499143842931
0.0 0.009835453922831153
0.0 0.009073520329637378
0.0 0.008369870608788587
0.0 0.007720046303381165
0.0 0.007119930012359803
0.0 0.006565719473503291
0.0 0.006053903138567378
0.0 0.005581237991563809
0.0 0.005144729226039185
0.0 0.004741611057488187
0.0 0.0043693292791303
0.0 0.004025525044342881
0.0 0.003708020011724216
0.0 0.0034148024235082608
0.0 0.0031440144220396763
0.0 0.0028939402701323716
0.0 0.002662995467766811
0.0 0.002449716685412359
0.0 0.0022527526214299264
0.0 0.0020708552514092115
0.0 0.0019028720461846066
0.0 0.001747738683375316
0.0 0.0016044721746929285
0.0 0.0014721648904195
0.0 0.0013499786752047198
0.0 0.0012371399411750142
0.0 0.0011329359626658017
0.0 0.0010367118505706379
0.0 0.000947867345834377
0.0 0.0008658574870269979
0.0 0.0007901952708542365
0.0 0.0007204467398497199
0.0 0.0006562315807500203
0.0 0.0005972251774112235
0.0 0.0005431102406802316
0.0 0.0004936682139034945
0.0 0.0004485992306197056
0.0 0.0004077001064078024
0.0 0.000370709193765287
0.0 0.00033742193532520126
0.0 0.0003076303798308111
0.0 0.00028114590986376073
0.0 0.00025769647604781377
0.0 0.00023716391795705667
0.0 0.0002194464413610564
0.0 0.00020438835434209729
0.0 0.0001920442048313683
0.0 0.0001822908852994218
0.0 0.0001749187403380124
0.0 0.0001698887830044534
0.0 0.0001669351245065347
0.0 0.0001653517685255461
0.0 0.00016470484749641555
0.0 0.00016431221259803454
0.0 0.00016372374410036718
1.3377670633634284e-17 0.004927245132661851
3.544335837986317e-18 0.0027738745973897353
3.951980465139687e-15 0.0015359333715544467
6.12613179608172e-10 0.000904973549969638
7.545458144410484e-18 0.0014042041053077832
1.5801606158612334e-17 0.002259784942604705
2.565578851056794e-07 0.0005053532374205076
1.0263641385516392e-17 0.001286773473408836
5.74077014578014e-13 0.0007827815989759764
5.38895092315408e-17 0.0007701206757723504
8.138162457345221e-18 0.0007097590365106987
1.077160768302966e-17 0.000676776896250008
2.4838592633551342e-17 0.01497373646140995
1.1167219056250551e-17 0.0006657294860763367
6.0783190913704e-09 0.00044431550468685413
6.344285794466671e-11 0.0004391906385626922
1.4583323378645116e-17 0.001170418081562436
3.3052661840549497e-06 0.0003007469396316945
6.373317135867543e-13 0.0003917646276148136
3.4429117940175213e-15 0.0004232446153805369
2.6956094202209752e-17 0.00040049305403302234
7.376570776321854e-18 0.00037727737010161654
8.760061943971093e-18 0.0003779922736688254
1.319473425735296e-17 0.0006414990043901029
1.0471889609387655e-17 0.00035247014978887474
1.1144441431300394e-17 0.0003911916516413817
-3.4876880524395853e-19 0.04847397115433262
4.850752909498374e-07 0.00025346154677477733
5.3562459608407346e-08 0.00024234083636825115
1.2318221661076461e-17 0.0003340075302638658
1.3026536188978554e-17 0.0003955732173969899
3.8208733724725805e-17 0.00798949711475715
3.00848736990671e-17 0.003711834662427624
5.954716362323959e-09 0.0002219475350652448
4.913966757328846e-10 0.00023130459960874448
4.1143203774123594e-11 0.0002220359532028754
3.82238241226874e-12 0.0002008670220544047
3.369830501226486e-13 0.00019930870162758764
1.969205438914095e-14 0.0002229602756253099
1.2293512470214e-15 0.0002183989270908209
1.0225176820863424e-16 0.0002004305654089263
1.1501852526249188e-17 0.0002208509368239468
8.919971441840163e-06 0.00017566335397279062
7.244849379313107e-18 0.00018666584180315155
7.564991061743307e-18 0.00021249040749849222
8.784431482034001e-18 0.00019683474572091338
9.707373702602699e-18 0.0002105561768270991