# vtk DataFile Version 3.0
Some data
ASCII
DATASET UNSTRUCTURED_GRID
POINTS 7930 float
0.0 0.0 0.0
0.0 10.0 0.0
10.0 10.0 0.0
10.0 0.0 0.0
0.5 0.0 0.0
0.0009999999999981016 0.0 0.0
0.001999999999996203 0.0 0.0
0.002999999999994305 0.0 0.0
0.003999999999992409 0.0 0.0
0.004999999999990531 0.0 0.0
0.005999999999988653 0.0 0.0
0.006999999999986775 0.0 0.0
0.007999999999984898 0.0 0.0
0.008999999999983018 0.0 0.0
0.009999999999981142 0.0 0.0
0.01099999999997926 0.0 0.0
0.01199999999997736 0.0 0.0
0.0129999999999754 0.0 0.0
0.01399999999997343 0.0 0.0
0.01499999999997147 0.0 0.0
0.01599999999996944 0.0 0.0
0.0169999999999673 0.0 0.0
0.01799999999996516 0.0 0.0
0.01899999999996302 0.0 0.0
0.01999999999996084 0.0 0.0
0.02099999999995862 0.0 0.0
0.02199999999995639 0.0 0.0
0.02299999999995417 0.0 0.0
0.02399999999995195 0.0 0.0
0.02499999999994972 0.0 0.0
0.0259999999999475 0.0 0.0
0.02699999999994527 0.0 0.0
0.02799999999994315 0.0 0.0
0.0289999999999411 0.0 0.0
0.02999999999993905 0.0 0.0
0.030999999999937 0.0 0.0
0.03199999999993521 0.0 0.0
0.0329999999999335 0.0 0.0
0.0339999999999318 0.0 0.0
0.03499999999993009 0.0 0.0
0.03599999999992853 0.0 0.0
0.036999999999927 0.0 0.0
0.03799999999992547 0.0 0.0
0.03899999999992394 0.0 0.0
0.03999999999992241 0.0 0.0
0.04099999999992088 0.0 0.0
0.04199999999991934 0.0 0.0
0.04299999999991782 0.0 0.0
0.04399999999991629 0.0 0.0
0.04499999999991475 0.0 0.0
0.04599999999991322 0.0 0.0
0.0469999999999117 0.0 0.0
0.04799999999991016 0.0 0.0
0.04899999999990863 0.0 0.0
0.0499999999999071 0.0 0.0
0.05099999999990557 0.0 0.0
0.05199999999990404 0.0 0.0
0.05299999999990251 0.0 0.0
0.05399999999990097 0.0 0.0
0.05499999999989943 0.0 0.0
0.05599999999989791 0.0 0.0
0.05699999999989638 0.0 0.0
0.05799999999989484 0.0 0.0
0.05899999999989317 0.0 0.0
0.05999999999989129 0.0 0.0
0.06099999999988941 0.0 0.0
0.06199999999988753 0.0 0.0
0.06299999999988531 0.0 0.0
0.06399999999988273 0.0 0.0
0.06499999999988015 0.0 0.0
0.06599999999987759 0.0 0.0
0.0669999999998748 0.0 0.0
0.06799999999987189 0.0 0.0
0.06899999999986897 0.0 0.0
0.06999999999986604 0.0 0.0
0.07099999999986313 0.0 0.0
0.0719999999998602 0.0 0.0
0.07299999999985729 0.0 0.0
0.07399999999985438 0.0 0.0
0.07499999999985145 0.0 0.0
0.07599999999984854 0.0 0.0
0.07699999999984562 0.0 0.0
0.0779999999998427 0.0 0.0
0.07899999999983978 0.0 0.0
0.07999999999983685 0.0 0.0
0.08099999999983394 0.0 0.0
0.08199999999983103 0.0 0.0
0.0829999999998281 0.0 0.0
0.08399999999982519 0.0 0.0
0.08499999999982226 0.0 0.0
0.08599999999981935 0.0 0.0
0.08699999999981643 0.0 0.0
0.0879999999998135 0.0 0.0
0.08899999999981059 0.0 0.0
0.08999999999980766 0.0 0.0
0.09099999999980475 0.0 0.0
0.09199999999980184 0.0 0.0
0.09299999999979891 0.0 0.0
0.093999999999796 0.0 0.0
0.09499999999979307 0.0 0.0
0.09599999999979016 0.0 0.0
0.09699999999978724 0.0 0.0
0.09799999999978432 0.0 0.0
0.0989999999997814 0.0 0.0
0.09999999999977847 0.0 0.0
0.1009999999997756 0.0 0.0
0.1019999999997726 0.0 0.0
0.1029999999997697 0.0 0.0
0.1039999999997668 0.0 0.0
0.1049999999997639 0.0 0.0
0.105999999999761 0.0 0.0
0.106999999999758 0.0 0.0
0.1079999999997551 0.0 0.0
0.1089999999997522 0.0 0.0
0.1099999999997493 0.0 0.0
0.1109999999997464 0.0 0.0
0.1119999999997434 0.0 0.0
0.1129999999997405 0.0 0.0
0.1139999999997376 0.0 0.0
0.1149999999997347 0.0 0.0
0.1159999999997318 0.0 0.0
0.1169999999997288 0.0 0.0
0.1179999999997259 0.0 0.0
0.118999999999723 0.0 0.0
0.1199999999997201 0.0 0.0
0.1209999999997172 0.0 0.0
0.1219999999997143 0.0 0.0
0.1229999999997113 0.0 0.0
0.1239999999997084 0.0 0.0
0.1249999999997055 0.0 0.0
0.1259999999997026 0.0 0.0
0.1269999999996997 0.0 0.0
0.1279999999996967 0.0 0.0
0.1289999999996938 0.0 0.0
0.1299999999996909 0.0 0.0
0.130999999999688 0.0 0.0
0.1319999999996851 0.0 0.0
0.1329999999996822 0.0 0.0
0.1339999999996792 0.0 0.0
0.1349999999996764 0.0 0.0
0.1359999999996734 0.0 0.0
0.1369999999996705 0.0 0.0
0.1379999999996676 0.0 0.0
0.1389999999996647 0.0 0.0
0.1399999999996618 0.0 0.0
0.1409999999996588 0.0 0.0
0.1419999999996559 0.0 0.0
0.142999999999653 0.0 0.0
0.1439999999996501 0.0 0.0
0.1449999999996472 0.0 0.0
0.1459999999996442 0.0 0.0
0.1469999999996414 0.0 0.0
0.1479999999996384 0.0 0.0
0.1489999999996355 0.0 0.0
0.1499999999996326 0.0 0.0
0.1509999999996297 0.0 0.0
0.1519999999996268 0.0 0.0
0.1529999999996239 0.0 0.0
0.1539999999996209 0.0 0.0
0.154999999999618 0.0 0.0
0.1559999999996151 0.0 0.0
0.1569999999996122 0.0 0.0
0.1579999999996093 0.0 0.0
0.1589999999996064 0.0 0.0
0.1599999999996035 0.0 0.0
0.1609999999996005 0.0 0.0
0.1619999999995976 0.0 0.0
0.1629999999995947 0.0 0.0
0.1639999999995918 0.0 0.0
0.1649999999995889 0.0 0.0
0.165999999999586 0.0 0.0
0.1669999999995831 0.0 0.0
0.1679999999995801 0.0 0.0
0.1689999999995772 0.0 0.0
0.1699999999995743 0.0 0.0
0.1709999999995714 0.0 0.0
0.1719999999995685 0.0 0.0
0.1729999999995655 0.0 0.0
0.1739999999995626 0.0 0.0
0.1749999999995597 0.0 0.0
0.1759999999995568 0.0 0.0
0.1769999999995539 0.0 0.0
0.177999999999551 0.0 0.0
0.178999999999548 0.0 0.0
0.1799999999995451 0.0 0.0
0.1809999999995422 0.0 0.0
0.1819999999995393 0.0 0.0
0.1829999999995364 0.0 0.0
0.1839999999995335 0.0 0.0
0.1849999999995305 0.0 0.0
0.1859999999995277 0.0 0.0
0.1869999999995247 0.0 0.0
0.1879999999995218 0.0 0.0
0.1889999999995189 0.0 0.0
0.189999999999516 0.0 0.0
0.1909999999995131 0.0 0.0
0.1919999999995101 0.0 0.0
0.1929999999995072 0.0 0.0
0.1939999999995043 0.0 0.0
0.1949999999995014 0.0 0.0
0.1959999999994985 0.0 0.0
0.1969999999994956 0.0 0.0
0.1979999999994927 0.0 0.0
0.1989999999994897 0.0 0.0
0.1999999999994868 0.0 0.0
0.2009999999994839 0.0 0.0
0.201999999999481 0.0 0.0
0.2029999999994781 0.0 0.0
0.2039999999994752 0.0 0.0
0.2049999999994722 0.0 0.0
0.2059999999994693 0.0 0.0
0.2069999999994664 0.0 0.0
0.2079999999994635 0.0 0.0
0.2089999999994606 0.0 0.0
0.2099999999994577 0.0 0.0
0.2109999999994548 0.0 0.0
0.2119999999994518 0.0 0.0
0.2129999999994489 0.0 0.0
0.213999999999446 0.0 0.0
0.2149999999994431 0.0 0.0
0.2159999999994402 0.0 0.0
0.2169999999994373 0.0 0.0
0.2179999999994343 0.0 0.0
0.2189999999994314 0.0 0.0
0.2199999999994285 0.0 0.0
0.2209999999994256 0.0 0.0
0.2219999999994227 0.0 0.0
0.2229999999994198 0.0 0.0
0.2239999999994168 0.0 0.0
0.2249999999994139 0.0 0.0
0.225999999999411 0.0 0.0
0.2269999999994081 0.0 0.0
0.2279999999994052 0.0 0.0
0.2289999999994023 0.0 0.0
0.2299999999993994 0.0 0.0
0.2309999999993964 0.0 0.0
0.2319999999993935 0.0 0.0
0.2329999999993906 0.0 0.0
0.2339999999993877 0.0 0.0
0.2349999999993848 0.0 0.0
0.2359999999993818 0.0 0.0
0.236999999999379 0.0 0.0
0.237999999999376 0.0 0.0
0.2389999999993731 0.0 0.0
0.2399999999993702 0.0 0.0
0.2409999999993673 0.0 0.0
0.2419999999993644 0.0 0.0
0.2429999999993615 0.0 0.0
0.2439999999993585 0.0 0.0
0.2449999999993556 0.0 0.0
0.2459999999993527 0.0 0.0
0.246999999999351 0.0 0.0
0.2479999999993495 0.0 0.0
0.248999999999348 0.0 0.0
0.2499999999993464 0.0 0.0
0.2509999999993477 0.0 0.0
0.2519999999993489 0.0 0.0
0.2529999999993502 0.0 0.0
0.2539999999993516 0.0 0.0
0.2549999999993542 0.0 0.0
0.2559999999993569 0.0 0.0
0.2569999999993595 0.0 0.0
0.2579999999993621 0.0 0.0
0.2589999999993647 0.0 0.0
0.2599999999993673 0.0 0.0
0.26099999999937 0.0 0.0
0.2619999999993726 0.0 0.0
0.2629999999993753 0.0 0.0
0.2639999999993779 0.0 0.0
0.2649999999993806 0.0 0.0
0.2659999999993832 0.0 0.0
0.2669999999993858 0.0 0.0
0.2679999999993884 0.0 0.0
0.2689999999993911 0.0 0.0
0.2699999999993937 0.0 0.0
0.2709999999993963 0.0 0.0
0.271999999999399 0.0 0.0
0.2729999999994017 0.0 0.0
0.2739999999994043 0.0 0.0
0.2749999999994069 0.0 0.0
0.2759999999994096 0.0 0.0
0.2769999999994122 0.0 0.0
0.2779999999994148 0.0 0.0
0.2789999999994174 0.0 0.0
0.2799999999994201 0.0 0.0
0.2809999999994228 0.0 0.0
0.2819999999994254 0.0 0.0
0.282999999999428 0.0 0.0
0.2839999999994306 0.0 0.0
0.2849999999994333 0.0 0.0
0.2859999999994359 0.0 0.0
0.2869999999994385 0.0 0.0
0.2879999999994411 0.0 0.0
0.2889999999994439 0.0 0.0
0.2899999999994465 0.0 0.0
0.2909999999994491 0.0 0.0
0.2919999999994517 0.0 0.0
0.2929999999994544 0.0 0.0
0.293999999999457 0.0 0.0
0.2949999999994596 0.0 0.0
0.2959999999994622 0.0 0.0
0.2969999999994649 0.0 0.0
0.2979999999994676 0.0 0.0
0.2989999999994702 0.0 0.0
0.2999999999994728 0.0 0.0
0.3009999999994754 0.0 0.0
0.3019999999994781 0.0 0.0
0.3029999999994807 0.0 0.0
0.3039999999994834 0.0 0.0
0.304999999999486 0.0 0.0
0.3059999999994886 0.0 0.0
0.3069999999994913 0.0 0.0
0.3079999999994939 0.0 0.0
0.3089999999994965 0.0 0.0
0.3099999999994992 0.0 0.0
0.3109999999995018 0.0 0.0
0.3119999999995045 0.0 0.0
0.3129999999995071 0.0 0.0
0.3139999999995097 0.0 0.0
0.3149999999995123 0.0 0.0
0.315999999999515 0.0 0.0
0.3169999999995176 0.0 0.0
0.3179999999995203 0.0 0.0
0.3189999999995229 0.0 0.0
0.3199999999995256 0.0 0.0
0.3209999999995282 0.0 0.0
0.3219999999995308 0.0 0.0
0.3229999999995334 0.0 0.0
0.323999999999536 0.0 0.0
0.3249999999995387 0.0 0.0
0.3259999999995414 0.0 0.0
0.326999999999544 0.0 0.0
0.3279999999995466 0.0 0.0
0.3289999999995493 0.0 0.0
0.3299999999995519 0.0 0.0
0.3309999999995545 0.0 0.0
0.3319999999995571 0.0 0.0
0.3329999999995598 0.0 0.0
0.3339999999995625 0.0 0.0
0.3349999999995651 0.0 0.0
0.3359999999995677 0.0 0.0
0.3369999999995703 0.0 0.0
0.337999999999573 0.0 0.0
0.3389999999995756 0.0 0.0
0.3399999999995783 0.0 0.0
0.3409999999995809 0.0 0.0
0.3419999999995835 0.0 0.0
0.3429999999995862 0.0 0.0
0.3439999999995888 0.0 0.0
0.3449999999995914 0.0 0.0
0.345999999999594 0.0 0.0
0.3469999999995967 0.0 0.0
0.3479999999995994 0.0 0.0
0.348999999999602 0.0 0.0
0.3499999999996046 0.0 0.0
0.3509999999996072 0.0 0.0
0.3519999999996099 0.0 0.0
0.3529999999996125 0.0 0.0
0.3539999999996151 0.0 0.0
0.3549999999996178 0.0 0.0
0.3559999999996205 0.0 0.0
0.3569999999996231 0.0 0.0
0.3579999999996257 0.0 0.0
0.3589999999996283 0.0 0.0
0.359999999999631 0.0 0.0
0.3609999999996336 0.0 0.0
0.3619999999996362 0.0 0.0
[...]
POINT_DATA 7930
SCALARS Disp float 2
LOOKUP_TABLE default
0.0 0.0010237470130453142
0.0 0.1
0.0 0.1
0.0 0.0
1.0274488031107323e-08 0.0
-6.954990432359946e-06 0.0010236036536756012
-1.3866751824836756e-05 0.001022854036348205
-2.0621206443720718e-05 0.0010213021972233184
-2.734095084196381e-05 0.0010198188356951381
-3.428314162534226e-05 0.0010186770051756775
-4.1463311348957364e-05 0.0010162489030267929
-4.812821015373913e-05 0.0010119604212312128
-5.442696610203095e-05 0.0010085058374874258
-6.13283100278746e-05 0.0010062412557953618
-6.869313806648044e-05 0.0010029138152889182
-7.5716530504237e-05 0.0009963751629381197
-8.194596180503463e-05 0.000990561449031475
-8.882981107482606e-05 0.0009866495598748195
-9.618582954636335e-05 0.0009812130027465954
-0.00010302506684715285 0.0009727034802376951
-0.00010909777555050152 0.0009647786450567254
-0.00011571526530632185 0.000959268396663418
-0.0001234650950321965 0.0009521723699253421
-0.00013062029147508823 0.0009413545635951721
-0.00013653501976833353 0.0009305867641292575
-0.00014296441473999033 0.0009232596790787895
-0.00015066718395710272 0.0009142300559443703
-0.00015775171819446435 0.000900751058099564
-0.0001634855425472553 0.0008874398403199375
-0.00016974702763843067 0.0008778460484691532
-0.0001774850836851996 0.0008669494443832408
-0.00018459408311888122 0.000850999783105264
-0.0001906299363353177 0.0008348543796826998
-0.00019704247473296006 0.0008221090868617981
-0.0002049786657625007 0.0008080055807309018
-0.00021225893720561826 0.0007885963904076843
-0.00021839313202476655 0.0007683437967388127
-0.00022466143128606808 0.0007517296398067873
-0.0002318835094783573 0.0007343146776454754
-0.000239326693791826 0.0007106936922875792
-0.00024544731042774626 0.0006857067755651075
-0.000251572160875854 0.0006644035321294563
-0.0002595214349723455 0.0006418797009807979
-0.00026705776762171366 0.0006121566023017985
-0.0002732480851583113 0.0005797149286149801
-0.00027927135882498046 0.0005503130291824829
-0.0002861552664732021 0.0005193723779699055
-0.0002937617316687967 0.0004790096366415947
-0.0003005048749043301 0.00043320509236893047
-0.00030585022742089704 0.0003875863981328531
-0.00031334487249260677 0.00033542598271328107
-0.000319424934612494 0.0002640517098752018
-0.00031741796886393793 0.0001701570723842718
-0.000293327943090212 0.0
-0.0002646117940830682 0.0
-0.0002405156423314435 0.0
-0.00022548969467829638 0.0
-0.00021297060311928448 0.0
-0.00020176837114359284 0.0
-0.00019261347765188873 0.0
-0.00018459603682594752 0.0
-0.00017738710943309606 0.0
-0.00017079336540344812 0.0
-0.00016481024982268849 0.0
-0.00015930463958223326 0.0
-0.00015415327412506862 0.0
-0.00014936576271479789 0.0
-0.00014487661903993333 0.0
-0.00014063343148838236 0.0
-0.00013663542915535678 0.0
-0.00013286621672005814 0.0
-0.00012927767670606425 0.0
-0.00012585961387993793 0.0
-0.00012261313715701306 0.0
-0.0001195246486433088 0.0
-0.0001165603574924974 0.0
-0.00011372683590894843 0.0
-0.00011101226005953262 0.0
-0.00010839608500167399 0.0
-0.0001058898419520914 0.0
-0.00010348729168306577 0.0
-0.00010117777126752716 0.0
-9.89571289476728e-05 0.0
-9.680856467461445e-05 0.0
-9.473971857761564e-05 0.0
-9.274316198007665e-05 0.0
-9.080840568941574e-05 0.0
-8.893364910292878e-05 0.0
-8.712311206994054e-05 0.0
-8.535850354224972e-05 0.0
-8.363974763350827e-05 0.0
-8.197144973676702e-05 0.0
-8.034770886272253e-05 0.0
-7.876860967671455e-05 0.0
-7.722583428751308e-05 0.0
-7.572137116017526e-05 0.0
-7.4253818552785e-05 0.0
-7.28199482444805e-05 0.0
-7.14205758268866e-05 0.0
-7.005751759434527e-05 0.0
-6.872650678008253e-05 0.0
-6.742316788777005e-05 0.0
-6.61510386488771e-05 0.0
-6.490542557010326e-05 0.0
-6.369132667872682e-05 0.0
-6.250442070360063e-05 0.0
-6.134707670994293e-05 0.0
-6.021710694373168e-05 0.0
-5.911371616327275e-05 0.0
-5.803553795027803e-05 0.0
-5.6976145081053993e-05 0.0
-5.59434912870891e-05 0.0
-5.4939551570169215e-05 0.0
-5.3944395305216895e-05 0.0
-5.2975137703764665e-05 0.0
-5.202649019755169e-05 0.0
-5.1093975732597204e-05 0.0
-5.018032683841126e-05 0.0
-4.9284374807479694e-05 0.0
-4.840330029072484e-05 0.0
-4.75390625729327e-05 0.0
-4.6691680278125834e-05 0.0
-4.586001208954243e-05 0.0
-4.504700792335031e-05 0.0
-4.423947484091849e-05 0.0
-4.3450910457737664e-05 0.0
-4.2674049768295176e-05 0.0
-4.191266939299088e-05 0.0
-4.116065764241615e-05 0.0
-4.042260134041789e-05 0.0
-3.96963993846805e-05 0.0
-3.8981990480358354e-05 0.0
-3.8278699826609953e-05 0.0
-3.75869525752276e-05 0.0
-3.690617836271773e-05 0.0
-3.623595371779905e-05 0.0
-3.5575916505637595e-05 0.0
-3.4927443943644676e-05 0.0
-3.429077157654027e-05 0.0
-3.365964161271214e-05 0.0
-3.304050008108435e-05 0.0
-3.243003584480186e-05 0.0
-3.182923774634942e-05 0.0
-3.123724125599941e-05 0.0
-3.065430340117286e-05 0.0
-3.008084153721306e-05 0.0
-2.9516462183210537e-05 0.0
-2.8960998191230533e-05 0.0
-2.8413483637679537e-05 0.0
-2.7874881321286107e-05 0.0
-2.7345073470168168e-05 0.0
-2.6823352410022758e-05 0.0
-2.630988107590553e-05 0.0
-2.5804218895414993e-05 0.0
-2.5306075866202495e-05 0.0
-2.481544148386574e-05 0.0
-2.4332257516723915e-05 0.0
-2.3855753288368844e-05 0.0
-2.3385707729148287e-05 0.0
-2.2922745969925813e-05 0.0
-2.2466802274859117e-05 0.0
-2.2015346991164577e-05 0.0
-2.1571260543617843e-05 0.0
-2.1132434645307034e-05 0.0
-2.0699195944375467e-05 0.0
-2.0272012226888974e-05 0.0
-1.984775827399622e-05 0.0
-1.9430083319161505e-05 0.0
-1.9017250115214717e-05 0.0
-1.860908515870153e-05 0.0
-1.8205760911837353e-05 0.0
-1.780704452678105e-05 0.0
-1.7412739243453007e-05 0.0
-1.7022785197062755e-05 0.0
-1.663741884569482e-05 0.0
-1.6256397573861045e-05 0.0
-1.587956887539452e-05 0.0
-1.5507604298636077e-05 0.0
-1.5140432897337093e-05 0.0
-1.477766388753514e-05 0.0
-1.4419417418573544e-05 0.0
-1.40660137062315e-05 0.0
-1.3717426729796994e-05 0.0
-1.3373092636482646e-05 0.0
-1.303351803131747e-05 0.0
-1.2698712716809904e-05 0.0
-1.2368412354221263e-05 0.0
-1.2042708013913052e-05 0.0
-1.1721458102734063e-05 0.0
-1.1404817734841727e-05 0.0
-1.1092451955345468e-05 0.0
-1.078441715511563e-05 0.0
-1.0480703601220038e-05 0.0
-1.018119886306839e-05 0.0
-9.885728987452066e-06 0.0
-9.594380670179269e-06 0.0
-9.306748911074748e-06 0.0
-9.022872176852702e-06 0.0
-8.742537157310003e-06 0.0
-8.465916802812002e-06 0.0
-8.192903206908645e-06 0.0
-7.923018099105382e-06 0.0
-7.656336281428445e-06 0.0
-7.392898376830941e-06 0.0
-7.13239339737498e-06 0.0
-6.8748557358579225e-06 0.0
-6.620288824043085e-06 0.0
-6.368723301846926e-06 0.0
-6.1199297632468035e-06 0.0
-5.8742204114900366e-06 0.0
-5.630645702323368e-06 0.0
-5.389874653243482e-06 0.0
-5.151812016742548e-06 0.0
-4.9166315584050545e-06 0.0
-4.684122161159823e-06 0.0
-4.454401207064624e-06 0.0
-4.227428434225707e-06 0.0
-4.003117693219936e-06 0.0
-3.781666462380448e-06 0.0
-3.563457502604125e-06 0.0
-3.34734127306492e-06 0.0
-3.1344569150075537e-06 0.0
-2.924632823073005e-06 0.0
-2.7176442256681572e-06 0.0
-2.513634442602185e-06 0.0
-2.3127587139823543e-06 0.0
-2.114901837870537e-06 0.0
-1.920022389683522e-06 0.0
-1.7282685114818826e-06 0.0
-1.539634213012203e-06 0.0
-1.3541842745031344e-06 0.0
-1.1719002627200748e-06 0.0
-9.926999590861756e-07 0.0
-8.166063154284344e-07 0.0
-6.435039016726486e-07 0.0
-4.735695066140735e-07 0.0
-3.0672235911922684e-07 0.0
-1.4286699715554812e-07 0.0
1.784216412618857e-08 0.0
1.7555722759190638e-07 0.0
3.3030635566174667e-07 0.0
4.821747917972488e-07 0.0
6.309424731665255e-07 0.0
7.768097491469574e-07 0.0
9.199133879886271e-07 0.0
1.0600968522837004e-06 0.0
1.1974277882288583e-06 0.0
1.332195285148457e-06 0.0
1.4641598268650835e-06 0.0
1.593278640927042e-06 0.0
1.719727839173594e-06 0.0
1.8433313912245235e-06 0.0
1.964320082296382e-06 0.0
2.0824958589545947e-06 0.0
2.1978824954037983e-06 0.0
2.3106869290984e-06 0.0
2.420728092353647e-06 0.0
2.5278908490469037e-06 0.0
2.6325247035163175e-06 0.0
2.7343902117479235e-06 0.0
2.833555775351225e-06 0.0
2.929833529504362e-06 0.0
3.0232615758912565e-06 0.0
3.113824027020316e-06 0.0
3.20157401081588e-06 0.0
3.2864530324630052e-06 0.0
3.368497302755101e-06 0.0
3.447601194317609e-06 0.0
3.523795445729302e-06 0.0
3.5971806194977866e-06 0.0
3.6675739219120863e-06 0.0
3.7349792562234655e-06 0.0
3.799501952354996e-06 0.0
3.86080979171331e-06 0.0
3.919868229665566e-06 0.0
3.975629221919698e-06 0.0
4.028417844863956e-06 0.0
4.078454197343815e-06 0.0
4.1255102156461566e-06 0.0
4.169791657693994e-06 0.0
4.211122229325125e-06 0.0
4.249657626500142e-06 0.0
4.285540067105441e-06 0.0
4.318656536550982e-06 0.0
4.349251816435434e-06 0.0
4.377081807826306e-06 0.0
4.402232144923435e-06 0.0
4.425042975852222e-06 0.0
4.445388181656445e-06 0.0
4.463465431528083e-06 0.0
4.479247779350229e-06 0.0
4.4926975265519384e-06 0.0
4.50405529065639e-06 0.0
4.513274102736953e-06 0.0
4.520635436620751e-06 0.0
4.526089641154458e-06 0.0
4.529760743158039e-06 0.0
4.531541351613753e-06 0.0
4.531625178479513e-06 0.0
4.53026072476856e-06 0.0
4.527340319150168e-06 0.0
4.522988475083283e-06 0.0
4.517276148500596e-06 0.0
4.510293049834436e-06 0.0
4.502080682375303e-06 0.0
4.492776550204755e-06 0.0
4.482371839676864e-06 0.0
4.470964909815269e-06 0.0
4.458600836219362e-06 0.0
4.445337669377639e-06 0.0
4.4312489539154445e-06 0.0
4.416353224085122e-06 0.0
4.400816342885699e-06 0.0
4.3845637533937564e-06 0.0
4.3676304590303305e-06 0.0
4.350048110843102e-06 0.0
4.331857502012323e-06 0.0
4.313208448985264e-06 0.0
4.29399968076586e-06 0.0
4.2742870442708285e-06 0.0
4.254079643297336e-06 0.0
4.233350007495061e-06 0.0
4.2121323867768015e-06 0.0
4.190454634127253e-06 0.0
4.168385147965571e-06 0.0
4.145834454927037e-06 0.0
4.122813613859744e-06 0.0
4.099389374982185e-06 0.0
4.075496365377267e-06 0.0
4.0511157345796346e-06 0.0
4.026291935294328e-06 0.0
4.0009589322258054e-06 0.0
3.975151495005264e-06 0.0
3.948835413100648e-06 0.0
3.921986017620457e-06 0.0
3.894640338924117e-06 0.0
3.866756612198267e-06 0.0
3.838335290336994e-06 0.0
3.8093499525935995e-06 0.0
3.7798079754435937e-06 0.0
3.7496981736033343e-06 0.0
3.7190167244174792e-06 0.0
3.6877545778473675e-06 0.0
3.655877457514796e-06 0.0
3.6233960515888794e-06 0.0
3.590306958217825e-06 0.0
3.5566138445127525e-06 0.0
3.5223087440583704e-06 0.0
3.487379151222411e-06 0.0
3.451800541686292e-06 0.0
3.4156530657528857e-06 0.0
3.3788767628909602e-06 0.0
3.341522957404943e-06 0.0
3.303608992393033e-06 0.0
3.2650778618945993e-06 0.0
3.225945872403258e-06 0.0
3.1863005060430892e-06 0.0
3.1460973760031e-06 0.0
3.1053867557726964e-06 0.0
3.0641643082078068e-06 0.0
3.0224218963949235e-06 0.0
2.9802524116525312e-06 0.0
2.937632893272281e-06 0.0
2.894599090968013e-06 0.0
2.8511899384938647e-06 0.0
2.807399310934953e-06 0.0
2.7632620043696084e-06 0.0
2.718823701107486e-06 0.0
2.6741015420927453e-06 0.0
2.629128125103182e-06 0.0
2.583936621903596e-06 0.0
2.5385542684173758e-06 0.0
2.493014733135464e-06 0.0
2.4473526301294406e-06 0.0
2.4015972455294367e-06 0.0
2.355785015114043e-06 0.0
2.3099465191580534e-06 0.0
2.264115114113039e-06 0.0
2.2183237837606025e-06 0.0
2.1726060721484342e-06 0.0
2.126993277057795e-06 0.0
2.081520242116211e-06 0.0
2.0362155609363545e-06 0.0
1.991093298738206e-06 0.0
1.9462089938610454e-06 0.0
1.9016039459872768e-06 0.0
1.8572707114874276e-06 0.0
1.8132340183695855e-06 0.0
1.7695648210006608e-06 0.0
1.7262748737554902e-06 0.0
1.6833668660851303e-06 0.0
1.6408717885632212e-06 0.0
1.5988219212817355e-06 0.0
1.5572139896330683e-06 0.0
1.516110636233285e-06 0.0
1.475540821753416e-06 0.0
1.4354671630147073e-06 0.0
1.3959334317221721e-06 0.0
1.3569657356615963e-06 0.0
1.3185328845342404e-06 0.0
1.28072910293931e-06 0.0
1.243531829940499e-06 0.0
1.2069385504532125e-06 0.0
1.1709938394887578e-06 0.0
1.1356945455176195e-06 0.0
1.1010121874024774e-06 0.0
1.0669842475179334e-06 0.0
1.0336227769496757e-06 0.0
1.000936051365422e-06 0.0
9.68914831028913e-07 0.0
9.375687856347197e-07 0.0
9.069005434083554e-07 0.0
8.769176834145608e-07 0.0
8.476083517571891e-07 0.0
8.189811418346228e-07 0.0
7.910246733191431e-07 0.0
7.637356057952094e-07 0.0
7.371303504758252e-07 0.0
7.111991208105521e-07 0.0
6.859317695548797e-07 0.0
6.613352478148425e-07 0.0
6.373968527641236e-07 0.0
6.140967868812133e-07 0.0
5.914469628378264e-07 0.0
5.694259350026063e-07 0.0
5.480355142697899e-07 0.0
5.2727597037855e-07 0.0
5.071267447175759e-07 0.0
4.875502157384857e-07 0.0
4.686003030811738e-07 0.0
4.502329409479824e-07 0.0
4.324502888264121e-07 0.0
4.152185452944219e-07 0.0
3.985382329578344e-07 0.0
3.824028024256299e-07 0.0
3.6679773895709284e-07 0.0
3.5170866337145527e-07 0.0
3.371237563725463e-07 0.0
3.2304155045509584e-07 0.0
3.094544772804486e-07 0.0
2.9634470886735104e-07 0.0
2.8369975055420834e-07 0.0
2.7151239752865765e-07 0.0
2.5976715880932285e-07 0.0
2.4843138306539687e-07 0.0
2.3753077456675145e-07 0.0
2.270432930012894e-07 0.0
2.1695568474109352e-07 0.0
2.0724781633133684e-07 0.0
1.979217809283555e-07 0.0
1.8893784106947e-07 0.0
1.8032495370389315e-07 0.0
1.7205109248146155e-07 0.0
1.6410456331261983e-07 0.0
1.5648371746718154e-07 0.0
1.4917073380094818e-07 0.0
1.4215326346741678e-07 0.0
1.354259615178352e-07 0.0
1.289785754393504e-07 0.0
1.228017402060745e-07 0.0
1.168987815737708e-07 0.0
1.1123271368638986e-07 0.0
1.0581720612180087e-07 0.0
1.0063534076868999e-07 0.0
9.568206528442389e-08 0.0
9.095096528706306e-08 0.0
8.643007364042324e-08 0.0
8.210679430063218e-08 0.0
7.797133759649848e-08 0.0
7.402906209378827e-08 0.0
7.027748400530912e-08 0.0
6.670075046465446e-08 0.0
6.327643110398688e-08 0.0
6.001512136159641e-08 0.0
5.6904032424865885e-08 0.0
5.39409570053711e-08 0.0
5.111750078153602e-08 0.0
4.84308573732228e-08 0.0
4.587363700430472e-08 0.0
4.343582524766855e-08 0.0
4.112110144559705e-08 0.0
3.892113900879003e-08 0.0
3.6832139529866526e-08 0.0
3.484379511576607e-08 0.0
3.295372270540786e-08 0.0
3.1157470660295696e-08 0.0
2.9453146365717843e-08 0.0
2.7840157771625118e-08 0.0
2.630267636696283e-08 0.0
2.4845664668986584e-08 0.0
2.3464195472363722e-08 0.0
2.215306100104327e-08 0.0
2.0914026677629355e-08 0.0
1.9736061292649336e-08 0.0
1.861911841952835e-08 0.0
1.7562861345438477e-08 0.0
1.656313896480798e-08 0.0
1.561502296060655e-08 0.0
1.471855457867304e-08 0.0
1.3870526201933996e-08 0.0
1.3069414568700851e-08 0.0
1.2310899037201291e-08 0.0
1.1591623265997076e-08 0.0
1.0914458458482007e-08 0.0
9.6480958551185e-09 0.0
9.008511634246859e-09 0.0
8.357915256630112e-09 0.0
7.700639672495366e-09 0.0
7.042031502715476e-09 0.0
6.386179371298411e-09 0.0
5.738603419376658e-09 0.0
5.105532381722019e-09 0.0
4.492524083770049e-09 0.0
3.9053057925241e-09 0.0
3.3505793722555686e-09 0.0
2.8312991845630504e-09 0.0
2.355158922505692e-09 0.0
1.923107487998017e-09 0.0
1.5381194545763349e-09 0.0
1.2051096517710777e-09 0.0
9.225383743770808e-10 0.0
6.854239257947542e-10 0.0
4.967714967241276e-10 0.0
3.471442701350326e-10 0.0
2.3354583450174387e-10 0.0
1.505834412207195e-10 0.0
9.390360295098567e-11 0.0
5.460074039368679e-11 0.0
3.049057738817309e-11 0.0
1.573649984995259e-11 0.0
7.627653719131831e-12 0.0
3.443806546976386e-12 0.0
1.404542531275218e-12 0.0
5.266078268891546e-13 0.0
1.7594404206353533e-13 0.0
5.102531061474216e-14 0.0
1.2426177772765558e-14 0.0
2.6836087033107085e-15 0.0
4.572546190515392e-16 0.0
6.262521785871072e-17 0.0
6.217690901572172e-18 0.0
5.738235318190207e-18 0.0
1.815580604074626e-17 0.0
2.6175051406056385e-17 0.0
2.841547423381803e-17 0.0
3.379352557039481e-17 0.0
3.192751617190323e-17 0.0
3.8573766930354046e-17 0.0
5.0986629901489084e-17 0.0
4.2179415201077455e-17 0.0
2.4380063674515258e-17 0.0
3.6476947806433294e-17 0.0
6.166186549614813e-17 0.0
6.349139881273088e-17 0.0
8.123048921302684e-17 0.0
5.921600149613742e-17 0.0
1.1693643759914563e-17 0.0
3.861483609534715e-17 0.0
-1.3505843410247068e-17 0.0
-3.737808991512711e-17 0.0
-6.4703379058767615e-18 0.0
-9.081358373160455e-18 0.0
4.813181906243438e-17 0.0
1.1042605993759634e-16 0.0
8.610827561837542e-17 0.0
1.6323404181782497e-16 0.0
9.79826656470931e-17 0.0
-4.681860342841691e-17 0.0
1.4461131614886284e-16 0.0
-1.4169905443305086e-16 0.0
1.4077192188629323e-16 0.0
7.384236545125694e-17 0.0
-1.5855703828745414e-16 0.0
3.115749005406264e-16 0.0
-1.20722020309553e-16 0.0
1.1966349978808094e-16 0.0
-9.219968534100916e-18 0.0
-1.617443060564569e-16 0.0
4.433139608471483e-16 0.0
2.0831616932173803e-17 0.0
-2.8399710263791074e-16 0.0
1.201536711532943e-16 0.0
-1.4022074224220516e-16 0.0
0.0 0.009234165287259307
0.0 0.022109785930451327
0.0 0.040062852071512924
0.0 0.0650956392632086
-1.822473753419242e-16 0.1
-2.8796711852985333e-16 0.1
3.583937092249671e-15 0.1
-4.179038549781626e-15 0.1
0.0 0.0923409595166292
0.0 0.08526779443702777
0.0 0.0787356878349809
0.0 0.07270325358168878
0.0 0.06713226878995153
0.0 0.06198743331092254
0.0 0.05723615233795284
0.0 0.0528483169295233
0.0 0.04879612844994608
0.0 0.04505391065784026
0.0 0.04159795282712463
0.0 0.03840635724257183
0.0 0.03545890171822356
0.0 0.03273691087332804
0.0 0.030223137736031927
0.0 0.027901654838205812
0.0 0.025757753001960135
0.0 0.02377784835211284
0.0 0.02194939580780435
0.0 0.020260810255894976
0.0 0.018701392223652708
0.0 0.01726126159503507
0.0 0.015931293336681387
0.0 0.01470306037294055
0.0 0.013568780782904473
0.0 0.012521267482861129
0.0 0.01155388341352355
0.0 0.010660499143843176
0.0 0.009835453922831814
0.0 0.00907352032963831
0.0 0.008369870608795965
0.0 0.007720046303401654
0.0 0.007119930011668317
0.0 0.006565719481554473
0.0 0.006053903106113359
0.0 0.0055812382483784164
0.0 0.005144726650603946
0.0 0.004741640040233717
0.0 0.004370072582724163
0.0 0.0040294003219195195
0.0 0.0037175987880260506
0.0 0.003431294074904388
0.0 0.0031689855561632474
0.0 0.0029295689152377545
0.0 0.0027109797146262337
0.0 0.002512596420912365
0.0 0.0023324058439582194
0.0 0.002168694137305167
0.0 0.002020570952666146
0.0 0.00188689886102751
0.0 0.0017667718245361018
0.0 0.0016591267726493288
0.0 0.0015630761025142391
0.0 0.0014781270135075402
0.0 0.0014031543651131
0.0 0.0013377578192016347
0.0 0.001281136147297146
0.0 0.0012327818840889599
0.0 0.0011919380646165524
0.0 0.001158015076002916
0.0 0.0011301308679211937
0.0 0.001107825329010573
0.0 0.0010905842405953205
0.0 0.0010769955936209717
0.0 0.001067605400398966
0.0 0.001060031024528106
0.0 0.0010549297911974782
0.0 0.0010515303918017958
0.0 0.0010492463236614967
0.0 0.0010478363547912618
0.0 0.0010466099706007567
0.0 0.0010456339709420555
0.0 0.0010445387172514583
0.0 0.0010433603074448095
0.0 0.001041943697038759
0.0 0.0010404568474670088
0.0 0.0010387834306006616
0.0 0.0010369372469902285
0.0 0.0010349306447251857
0.0 0.0010326810803395609
0.0 0.0010304587565197493
0.0 0.0010282598529065506
0.0 0.0010260720566387092
-2.1346406843570808e-13 0.004927245132666292
2.548318711257683e-06 0.0027760070257760116
3.806108378780109e-05 0.0015613633430223766
6.0339077990941185e-05 0.001008303419619378
7.522789268330099e-06 0.0014057406850587094
6.171126078410308e-11 0.002259785002135875
8.478909154722061e-05 0.0007812424259466567
2.745882834074421e-07 0.0012868472053883051
1.5925813175821768e-05 0.0007881035079585092
9.394409702562087e-06 0.0007664526106676618
5.278042296947822e-06 0.0007097559730939087
1.7997045338653864e-06 0.000676979002290132
1.550662278536812e-16 0.014973736461407955
1.354387135885891e-07 0.0006657474255900683
9.835986079059142e-06 0.0004917834722093777
-5.5712430923952274e-06 0.0004457743574492543
6.891653499839765e-11 0.0011704181009882068
6.359625196916535e-05 0.0008628688426882495
-4.574103184609712e-06 0.00038951769382015517
2.1089721843306617e-06 0.00041930368838927337
4.919356117485334e-06 0.00039823909904331803
5.063054224236779e-06 0.0003767754376102829
3.975567275361537e-06 0.000378038265356752
3.6467450433680212e-09 0.0006414994978017257
2.461060783086394e-06 0.0003525881019283588
8.505659180952504e-07 0.00039125120570510785
-4.8660987317856095e-16 0.0484739711543318
3.162992700473767e-05 0.0004609009338183421