# vtk DataFile Version 3.0
Some data
ASCII
DATASET UNSTRUCTURED_GRID
POINTS 7930 float
0.0 0.0 0.0
0.0 10.0 0.0
10.0 10.0 0.0
10.0 0.0 0.0
0.5 0.0 0.0
0.0009999999999981016 0.0 0.0
0.001999999999996203 0.0 0.0
0.002999999999994305 0.0 0.0
0.003999999999992409 0.0 0.0
0.004999999999990531 0.0 0.0
0.005999999999988653 0.0 0.0
0.006999999999986775 0.0 0.0
0.007999999999984898 0.0 0.0
0.008999999999983018 0.0 0.0
0.009999999999981142 0.0 0.0
0.01099999999997926 0.0 0.0
0.01199999999997736 0.0 0.0
0.0129999999999754 0.0 0.0
0.01399999999997343 0.0 0.0
0.01499999999997147 0.0 0.0
0.01599999999996944 0.0 0.0
0.0169999999999673 0.0 0.0
0.01799999999996516 0.0 0.0
0.01899999999996302 0.0 0.0
0.01999999999996084 0.0 0.0
0.02099999999995862 0.0 0.0
0.02199999999995639 0.0 0.0
0.02299999999995417 0.0 0.0
0.02399999999995195 0.0 0.0
0.02499999999994972 0.0 0.0
0.0259999999999475 0.0 0.0
0.02699999999994527 0.0 0.0
0.02799999999994315 0.0 0.0
0.0289999999999411 0.0 0.0
0.02999999999993905 0.0 0.0
0.030999999999937 0.0 0.0
0.03199999999993521 0.0 0.0
0.0329999999999335 0.0 0.0
0.0339999999999318 0.0 0.0
0.03499999999993009 0.0 0.0
0.03599999999992853 0.0 0.0
0.036999999999927 0.0 0.0
0.03799999999992547 0.0 0.0
0.03899999999992394 0.0 0.0
0.03999999999992241 0.0 0.0
0.04099999999992088 0.0 0.0
0.04199999999991934 0.0 0.0
0.04299999999991782 0.0 0.0
0.04399999999991629 0.0 0.0
0.04499999999991475 0.0 0.0
0.04599999999991322 0.0 0.0
0.0469999999999117 0.0 0.0
0.04799999999991016 0.0 0.0
0.04899999999990863 0.0 0.0
0.0499999999999071 0.0 0.0
0.05099999999990557 0.0 0.0
0.05199999999990404 0.0 0.0
0.05299999999990251 0.0 0.0
0.05399999999990097 0.0 0.0
0.05499999999989943 0.0 0.0
0.05599999999989791 0.0 0.0
0.05699999999989638 0.0 0.0
0.05799999999989484 0.0 0.0
0.05899999999989317 0.0 0.0
0.05999999999989129 0.0 0.0
0.06099999999988941 0.0 0.0
0.06199999999988753 0.0 0.0
0.06299999999988531 0.0 0.0
0.06399999999988273 0.0 0.0
0.06499999999988015 0.0 0.0
0.06599999999987759 0.0 0.0
0.0669999999998748 0.0 0.0
0.06799999999987189 0.0 0.0
0.06899999999986897 0.0 0.0
0.06999999999986604 0.0 0.0
0.07099999999986313 0.0 0.0
0.0719999999998602 0.0 0.0
0.07299999999985729 0.0 0.0
0.07399999999985438 0.0 0.0
0.07499999999985145 0.0 0.0
0.07599999999984854 0.0 0.0
0.07699999999984562 0.0 0.0
0.0779999999998427 0.0 0.0
0.07899999999983978 0.0 0.0
0.07999999999983685 0.0 0.0
0.08099999999983394 0.0 0.0
0.08199999999983103 0.0 0.0
0.0829999999998281 0.0 0.0
0.08399999999982519 0.0 0.0
0.08499999999982226 0.0 0.0
0.08599999999981935 0.0 0.0
0.08699999999981643 0.0 0.0
0.0879999999998135 0.0 0.0
0.08899999999981059 0.0 0.0
0.08999999999980766 0.0 0.0
0.09099999999980475 0.0 0.0
0.09199999999980184 0.0 0.0
0.09299999999979891 0.0 0.0
0.093999999999796 0.0 0.0
0.09499999999979307 0.0 0.0
0.09599999999979016 0.0 0.0
0.09699999999978724 0.0 0.0
0.09799999999978432 0.0 0.0
0.0989999999997814 0.0 0.0
0.09999999999977847 0.0 0.0
0.1009999999997756 0.0 0.0
0.1019999999997726 0.0 0.0
0.1029999999997697 0.0 0.0
0.1039999999997668 0.0 0.0
0.1049999999997639 0.0 0.0
0.105999999999761 0.0 0.0
0.106999999999758 0.0 0.0
0.1079999999997551 0.0 0.0
0.1089999999997522 0.0 0.0
0.1099999999997493 0.0 0.0
0.1109999999997464 0.0 0.0
0.1119999999997434 0.0 0.0
0.1129999999997405 0.0 0.0
0.1139999999997376 0.0 0.0
0.1149999999997347 0.0 0.0
0.1159999999997318 0.0 0.0
0.1169999999997288 0.0 0.0
0.1179999999997259 0.0 0.0
0.118999999999723 0.0 0.0
0.1199999999997201 0.0 0.0
0.1209999999997172 0.0 0.0
0.1219999999997143 0.0 0.0
0.1229999999997113 0.0 0.0
0.1239999999997084 0.0 0.0
0.1249999999997055 0.0 0.0
0.1259999999997026 0.0 0.0
0.1269999999996997 0.0 0.0
0.1279999999996967 0.0 0.0
0.1289999999996938 0.0 0.0
0.1299999999996909 0.0 0.0
0.130999999999688 0.0 0.0
0.1319999999996851 0.0 0.0
0.1329999999996822 0.0 0.0
0.1339999999996792 0.0 0.0
0.1349999999996764 0.0 0.0
0.1359999999996734 0.0 0.0
0.1369999999996705 0.0 0.0
0.1379999999996676 0.0 0.0
0.1389999999996647 0.0 0.0
0.1399999999996618 0.0 0.0
0.1409999999996588 0.0 0.0
0.1419999999996559 0.0 0.0
0.142999999999653 0.0 0.0
0.1439999999996501 0.0 0.0
0.1449999999996472 0.0 0.0
0.1459999999996442 0.0 0.0
0.1469999999996414 0.0 0.0
0.1479999999996384 0.0 0.0
0.1489999999996355 0.0 0.0
0.1499999999996326 0.0 0.0
0.1509999999996297 0.0 0.0
0.1519999999996268 0.0 0.0
0.1529999999996239 0.0 0.0
0.1539999999996209 0.0 0.0
0.154999999999618 0.0 0.0
0.1559999999996151 0.0 0.0
0.1569999999996122 0.0 0.0
0.1579999999996093 0.0 0.0
0.1589999999996064 0.0 0.0
0.1599999999996035 0.0 0.0
0.1609999999996005 0.0 0.0
0.1619999999995976 0.0 0.0
0.1629999999995947 0.0 0.0
0.1639999999995918 0.0 0.0
0.1649999999995889 0.0 0.0
0.165999999999586 0.0 0.0
0.1669999999995831 0.0 0.0
0.1679999999995801 0.0 0.0
0.1689999999995772 0.0 0.0
0.1699999999995743 0.0 0.0
0.1709999999995714 0.0 0.0
0.1719999999995685 0.0 0.0
0.1729999999995655 0.0 0.0
0.1739999999995626 0.0 0.0
0.1749999999995597 0.0 0.0
0.1759999999995568 0.0 0.0
0.1769999999995539 0.0 0.0
0.177999999999551 0.0 0.0
0.178999999999548 0.0 0.0
0.1799999999995451 0.0 0.0
0.1809999999995422 0.0 0.0
0.1819999999995393 0.0 0.0
0.1829999999995364 0.0 0.0
0.1839999999995335 0.0 0.0
0.1849999999995305 0.0 0.0
0.1859999999995277 0.0 0.0
0.1869999999995247 0.0 0.0
0.1879999999995218 0.0 0.0
0.1889999999995189 0.0 0.0
0.189999999999516 0.0 0.0
0.1909999999995131 0.0 0.0
0.1919999999995101 0.0 0.0
0.1929999999995072 0.0 0.0
0.1939999999995043 0.0 0.0
0.1949999999995014 0.0 0.0
0.1959999999994985 0.0 0.0
0.1969999999994956 0.0 0.0
0.1979999999994927 0.0 0.0
0.1989999999994897 0.0 0.0
0.1999999999994868 0.0 0.0
0.2009999999994839 0.0 0.0
0.201999999999481 0.0 0.0
0.2029999999994781 0.0 0.0
0.2039999999994752 0.0 0.0
0.2049999999994722 0.0 0.0
0.2059999999994693 0.0 0.0
0.2069999999994664 0.0 0.0
0.2079999999994635 0.0 0.0
0.2089999999994606 0.0 0.0
0.2099999999994577 0.0 0.0
0.2109999999994548 0.0 0.0
0.2119999999994518 0.0 0.0
0.2129999999994489 0.0 0.0
0.213999999999446 0.0 0.0
0.2149999999994431 0.0 0.0
0.2159999999994402 0.0 0.0
0.2169999999994373 0.0 0.0
0.2179999999994343 0.0 0.0
0.2189999999994314 0.0 0.0
0.2199999999994285 0.0 0.0
0.2209999999994256 0.0 0.0
0.2219999999994227 0.0 0.0
0.2229999999994198 0.0 0.0
0.2239999999994168 0.0 0.0
0.2249999999994139 0.0 0.0
0.225999999999411 0.0 0.0
0.2269999999994081 0.0 0.0
0.2279999999994052 0.0 0.0
0.2289999999994023 0.0 0.0
0.2299999999993994 0.0 0.0
0.2309999999993964 0.0 0.0
0.2319999999993935 0.0 0.0
0.2329999999993906 0.0 0.0
0.2339999999993877 0.0 0.0
0.2349999999993848 0.0 0.0
0.2359999999993818 0.0 0.0
0.236999999999379 0.0 0.0
0.237999999999376 0.0 0.0
0.2389999999993731 0.0 0.0
0.2399999999993702 0.0 0.0
0.2409999999993673 0.0 0.0
0.2419999999993644 0.0 0.0
0.2429999999993615 0.0 0.0
0.2439999999993585 0.0 0.0
0.2449999999993556 0.0 0.0
0.2459999999993527 0.0 0.0
0.246999999999351 0.0 0.0
0.2479999999993495 0.0 0.0
0.248999999999348 0.0 0.0
0.2499999999993464 0.0 0.0
0.2509999999993477 0.0 0.0
0.2519999999993489 0.0 0.0
0.2529999999993502 0.0 0.0
0.2539999999993516 0.0 0.0
0.2549999999993542 0.0 0.0
0.2559999999993569 0.0 0.0
0.2569999999993595 0.0 0.0
0.2579999999993621 0.0 0.0
0.2589999999993647 0.0 0.0
0.2599999999993673 0.0 0.0
0.26099999999937 0.0 0.0
0.2619999999993726 0.0 0.0
0.2629999999993753 0.0 0.0
0.2639999999993779 0.0 0.0
0.2649999999993806 0.0 0.0
0.2659999999993832 0.0 0.0
0.2669999999993858 0.0 0.0
0.2679999999993884 0.0 0.0
0.2689999999993911 0.0 0.0
0.2699999999993937 0.0 0.0
0.2709999999993963 0.0 0.0
0.271999999999399 0.0 0.0
0.2729999999994017 0.0 0.0
0.2739999999994043 0.0 0.0
0.2749999999994069 0.0 0.0
0.2759999999994096 0.0 0.0
0.2769999999994122 0.0 0.0
0.2779999999994148 0.0 0.0
0.2789999999994174 0.0 0.0
0.2799999999994201 0.0 0.0
0.2809999999994228 0.0 0.0
0.2819999999994254 0.0 0.0
0.282999999999428 0.0 0.0
0.2839999999994306 0.0 0.0
0.2849999999994333 0.0 0.0
0.2859999999994359 0.0 0.0
0.2869999999994385 0.0 0.0
0.2879999999994411 0.0 0.0
0.2889999999994439 0.0 0.0
0.2899999999994465 0.0 0.0
0.2909999999994491 0.0 0.0
0.2919999999994517 0.0 0.0
0.2929999999994544 0.0 0.0
0.293999999999457 0.0 0.0
0.2949999999994596 0.0 0.0
0.2959999999994622 0.0 0.0
0.2969999999994649 0.0 0.0
0.2979999999994676 0.0 0.0
0.2989999999994702 0.0 0.0
0.2999999999994728 0.0 0.0
0.3009999999994754 0.0 0.0
0.3019999999994781 0.0 0.0
0.3029999999994807 0.0 0.0
0.3039999999994834 0.0 0.0
0.304999999999486 0.0 0.0
0.3059999999994886 0.0 0.0
0.3069999999994913 0.0 0.0
0.3079999999994939 0.0 0.0
0.3089999999994965 0.0 0.0
0.3099999999994992 0.0 0.0
0.3109999999995018 0.0 0.0
0.3119999999995045 0.0 0.0
0.3129999999995071 0.0 0.0
0.3139999999995097 0.0 0.0
0.3149999999995123 0.0 0.0
0.315999999999515 0.0 0.0
0.3169999999995176 0.0 0.0
0.3179999999995203 0.0 0.0
0.3189999999995229 0.0 0.0
0.3199999999995256 0.0 0.0
0.3209999999995282 0.0 0.0
0.3219999999995308 0.0 0.0
0.3229999999995334 0.0 0.0
0.323999999999536 0.0 0.0
0.3249999999995387 0.0 0.0
0.3259999999995414 0.0 0.0
0.326999999999544 0.0 0.0
0.3279999999995466 0.0 0.0
0.3289999999995493 0.0 0.0
0.3299999999995519 0.0 0.0
0.3309999999995545 0.0 0.0
0.3319999999995571 0.0 0.0
0.3329999999995598 0.0 0.0
0.3339999999995625 0.0 0.0
0.3349999999995651 0.0 0.0
0.3359999999995677 0.0 0.0
0.3369999999995703 0.0 0.0
0.337999999999573 0.0 0.0
0.3389999999995756 0.0 0.0
0.3399999999995783 0.0 0.0
0.3409999999995809 0.0 0.0
0.3419999999995835 0.0 0.0
0.3429999999995862 0.0 0.0
0.3439999999995888 0.0 0.0
0.3449999999995914 0.0 0.0
0.345999999999594 0.0 0.0
0.3469999999995967 0.0 0.0
0.3479999999995994 0.0 0.0
0.348999999999602 0.0 0.0
0.3499999999996046 0.0 0.0
0.3509999999996072 0.0 0.0
0.3519999999996099 0.0 0.0
0.3529999999996125 0.0 0.0
0.3539999999996151 0.0 0.0
0.3549999999996178 0.0 0.0
0.3559999999996205 0.0 0.0
0.3569999999996231 0.0 0.0
0.3579999999996257 0.0 0.0
0.3589999999996283 0.0 0.0
0.359999999999631 0.0 0.0
0.3609999999996336 0.0 0.0
0.3619999999996362 0.0 0.0
[...]
POINT_DATA 7930
SCALARS Disp float 2
LOOKUP_TABLE default
0.0 0.0008968075694917646
0.0 0.1
0.0 0.1
0.0 0.0
1.889889084379564e-10 0.0
-6.767271525806776e-06 0.0008964789460696274
-1.3491176163697735e-05 0.0008957801557813161
-2.032920178505248e-05 0.0008950862229552606
-2.7427687512651664e-05 0.0008933240673508856
-3.406926450662617e-05 0.000890154406288295
-4.0518366491183464e-05 0.0008873125735835563
-4.747900044547293e-05 0.0008855159592539218
-5.475880516872352e-05 0.0008821304258854482
-6.15931416959996e-05 0.0008762488138945742
-6.78370458913783e-05 0.0008705891593608086
-7.441835828460758e-05 0.0008670178813764835
-8.195828971636978e-05 0.000862005920985601
-8.880398482862639e-05 0.0008539836791581558
-9.500817668319184e-05 0.0008461956332677845
-0.00010186842192545735 0.0008405267445933738
-0.00010932704207606337 0.0008334263596681121
-0.00011664641360039533 0.0008226372916904442
-0.00012268530134914524 0.000811745218576408
-0.00012916911787386044 0.0008033954146547638
-0.00013676379426757367 0.0007943769826099457
-0.00014409667763786062 0.0007803450790849876
-0.00014999549276786936 0.0007663521672713725
-0.00015623570201550233 0.0007556063557104475
-0.0001638918502380774 0.0007437626363100264
-0.00017131302938098024 0.0007268274862706243
-0.0001773593703687933 0.0007088787594177603
-0.0001835793535380275 0.0006943738964818564
-0.00019125315067480836 0.0006787015205373736
-0.00019848951090171795 0.0006576312592735892
-0.00020456729193542674 0.0006351253448652699
-0.00021059064653408438 0.0006157548685587402
-0.00021822082708267392 0.0005952847417851417
-0.00022578993138052384 0.0005684659898157878
-0.00023177344215850299 0.0005389439658936411
-0.00023767173902115897 0.0005121894330431901
-0.00024562657297714683 0.0004834980790718175
-0.00025295660673158173 0.00044669109745325416
-0.00025928267116700647 0.00040447845746355537
-0.00026453216352846035 0.00036238562683658156
-0.0002717836969511455 0.0003138522422719545
-0.00027717059541303466 0.0002471741118662945
-0.0002745125116477412 0.00015854555038911607
-0.0002587363689280771 0.0
-0.0002265984395104105 0.0
-0.00020753619527258158 0.0
-0.00019252948867893864 0.0
-0.00018105117700813013 0.0
-0.00017138630969899734 0.0
-0.00016296698332944729 0.0
-0.00015559347318168276 0.0
-0.00014900464313754834 0.0
-0.00014314227917578405 0.0
-0.00013780391625478118 0.0
-0.00013264808400373758 0.0
-0.00012803699764272081 0.0
-0.00012377967750653248 0.0
-0.00011981210878607005 0.0
-0.00011607279560335195 0.0
-0.00011257307119335652 0.0
-0.00010926840778872635 0.0
-0.00010611631113499683 0.0
-0.00010312887708560638 0.0
-0.00010028312541120695 0.0
-9.755554310971533e-05 0.0
-9.495117707896428e-05 0.0
-9.246291941998453e-05 0.0
-9.006869573598737e-05 0.0
-8.77661368509153e-05 0.0
-8.555879275267111e-05 0.0
-8.344085988261754e-05 0.0
-8.139528507227132e-05 0.0
-7.942668969020596e-05 0.0
-7.752974869275766e-05 0.0
-7.569305789053878e-05 0.0
-7.392434652833046e-05 0.0
-7.222024563833816e-05 0.0
-7.057493710110148e-05 0.0
-6.898600243241033e-05 0.0
-6.74438856827752e-05 0.0
-6.595317195060337e-05 0.0
-6.450952904976734e-05 0.0
-6.310669818081324e-05 0.0
-6.174358692177128e-05 0.0
-6.042284106583291e-05 0.0
-5.913320272983071e-05 0.0
-5.787510421772869e-05 0.0
-5.665150719007251e-05 0.0
-5.545891364501156e-05 0.0
-5.4297499323373385e-05 0.0
-5.316202004263726e-05 0.0
-5.205407271231511e-05 0.0
-5.097252254132871e-05 0.0
-4.991541124753155e-05 0.0
-4.888328563672219e-05 0.0
-4.78772988907983e-05 0.0
-4.689479594917852e-05 0.0
-4.593271261362674e-05 0.0
-4.499327833511093e-05 0.0
-4.4073225084578935e-05 0.0
-4.3175604767300236e-05 0.0
-4.229753423278812e-05 0.0
-4.1440401688458323e-05 0.0
-4.0602610928143817e-05 0.0
-3.978347044250975e-05 0.0
-3.898192494551443e-05 0.0
-3.819342073005648e-05 0.0
-3.742330415319046e-05 0.0
-3.6672903489576574e-05 0.0
-3.5928364064034344e-05 0.0
-3.5201472209322314e-05 0.0
-3.448851680251301e-05 0.0
-3.378641012595248e-05 0.0
-3.3097080249126746e-05 0.0
-3.241975930761002e-05 0.0
-3.175257324813294e-05 0.0
-3.109696815284649e-05 0.0
-3.0453069970141607e-05 0.0
-2.982023990680194e-05 0.0
-2.9200678942438903e-05 0.0
-2.85854571126746e-05 0.0
-2.798366870403405e-05 0.0
-2.7390818458117842e-05 0.0
-2.6809641990717074e-05 0.0
-2.623602240635707e-05 0.0
-2.5672999153632864e-05 0.0
-2.5119561733498012e-05 0.0
-2.4575766700718942e-05 0.0
-2.40408990455991e-05 0.0
-2.3515448449438792e-05 0.0
-2.2998939180704638e-05 0.0
-2.2491232239879602e-05 0.0
-2.1991930001106412e-05 0.0
-2.1501938423382943e-05 0.0
-2.102132755644587e-05 0.0
-2.054560196512371e-05 0.0
-2.0079055611832378e-05 0.0
-1.9619406835206575e-05 0.0
-1.9167077780291025e-05 0.0
-1.8721336030238864e-05 0.0
-1.8282224546718695e-05 0.0
-1.784990380041905e-05 0.0
-1.7423975877909165e-05 0.0
-1.7004211473926666e-05 0.0
-1.65898359931967e-05 0.0
-1.6181471338586623e-05 0.0
-1.5778962244875448e-05 0.0
-1.5381806187548723e-05 0.0
-1.4990167527713355e-05 0.0
-1.4603732902783315e-05 0.0
-1.4222321875853913e-05 0.0
-1.3846032020084706e-05 0.0
-1.3474923574366084e-05 0.0
-1.3108569447930813e-05 0.0
-1.2746911774102397e-05 0.0
-1.2390565876778997e-05 0.0
-1.2039546228711818e-05 0.0
-1.1692552162655489e-05 0.0
-1.1351096382368414e-05 0.0
-1.101435005098933e-05 0.0
-1.0682615561374626e-05 0.0
-1.035615856127138e-05 0.0
-1.0033404626513317e-05 0.0
-9.71598182808727e-06 0.0
-9.403636721090411e-06 0.0
-9.096209942030764e-06 0.0
-8.793603129772588e-06 0.0
-8.495807564139882e-06 0.0
-8.20255341798012e-06 0.0
-7.913900492567677e-06 0.0
-7.629990613541176e-06 0.0
-7.350505701227343e-06 0.0
-7.075478547937009e-06 0.0
-6.805099459971248e-06 0.0
-6.539225377359983e-06 0.0
-6.2775691221816185e-06 0.0
-6.020160020725413e-06 0.0
-5.7670704265418575e-06 0.0
-5.518101402759653e-06 0.0
-5.272862814260102e-06 0.0
-5.031584758919958e-06 0.0
-4.794132739901275e-06 0.0
-4.560288074269198e-06 0.0
-4.330020188410671e-06 0.0
-4.103139493437597e-06 0.0
-3.879701145623778e-06 0.0
-3.65943497746036e-06 0.0
-3.442338236982095e-06 0.0
-3.228371687640109e-06 0.0
-3.0174493604759283e-06 0.0
-2.8094415597467267e-06 0.0
-2.604410034434935e-06 0.0
-2.4020999935599406e-06 0.0
-2.2025603013795108e-06 0.0
-2.005678090892985e-06 0.0
-1.8116568449700595e-06 0.0
-1.620421493967761e-06 0.0
-1.4316823007975666e-06 0.0
-1.2456479830461267e-06 0.0
-1.06228310531972e-06 0.0
-8.81571110235719e-07 0.0
-7.035199571333289e-07 0.0
-5.281275499935279e-07 0.0
-3.5571203161928025e-07 0.0
-1.8618362906702172e-07 0.0
-1.9663968544631147e-08 0.0
1.443143176851292e-07 0.0
3.0519957452964075e-07 0.0
4.6310622320113314e-07 0.0
6.178406601528932e-07 0.0
7.693395272498948e-07 0.0
9.174329124394401e-07 0.0
1.0623335445321217e-06 0.0
1.2038562757546027e-06 0.0
1.341679988563415e-06 0.0
1.475977318280443e-06 0.0
1.6069051747359115e-06 0.0
1.7340886402957402e-06 0.0
1.8574131390961875e-06 0.0
1.9768733083506977e-06 0.0
2.09260476587027e-06 0.0
2.204277207655334e-06 0.0
2.312071113698449e-06 0.0
2.416048212112259e-06 0.0
2.516056504583094e-06 0.0
2.6120867068167035e-06 0.0
2.703934435670955e-06 0.0
2.7918675250477546e-06 0.0
2.8758682492078604e-06 0.0
2.955950782021804e-06 0.0
3.0324316545897135e-06 0.0
3.104838758030716e-06 0.0
3.173342599388689e-06 0.0
3.2382787896125124e-06 0.0
3.2994010750361576e-06 0.0
3.3568374527802204e-06 0.0
3.410879384418381e-06 0.0
3.4615270510196895e-06 0.0
3.508650650665442e-06 0.0
3.5525284924245836e-06 0.0
3.5933457361197254e-06 0.0
3.6310021588434378e-06 0.0
3.665657032922022e-06 0.0
3.697709140980436e-06 0.0
3.726941001456238e-06 0.0
3.753447663598356e-06 0.0
3.777543265951847e-06 0.0
3.7990727391897147e-06 0.0
3.818369915963587e-06 0.0
3.835425285464593e-06 0.0
3.850323775995464e-06 0.0
3.86332104618385e-06 0.0
3.874392537681987e-06 0.0
3.883557986356087e-06 0.0
3.891148455642176e-06 0.0
3.897115617935289e-06 0.0
3.901573693876422e-06 0.0
3.904511962247515e-06 0.0
3.906041741141085e-06 0.0
3.9062382037763436e-06 0.0
3.9052016246485344e-06 0.0
3.902971272225212e-06 0.0
3.899624720457983e-06 0.0
3.895170200075445e-06 0.0
3.889673436644525e-06 0.0
3.8832205720343565e-06 0.0
3.8757782674340725e-06 0.0
3.867384601826511e-06 0.0
3.858101245098341e-06 0.0
3.847848835389536e-06 0.0
3.836963385002767e-06 0.0
3.825095127535774e-06 0.0
3.8123648695716524e-06 0.0
3.798858886318537e-06 0.0
3.784486785005777e-06 0.0
3.769320152564301e-06 0.0
3.7532877906954514e-06 0.0
3.7364307233207177e-06 0.0
3.7187792171546667e-06 0.0
3.7002766162111215e-06 0.0
3.6809835413885754e-06 0.0
3.6607935819678513e-06 0.0
3.639710426371354e-06 0.0
3.617822909519413e-06 0.0
3.595059214051962e-06 0.0
3.5714588275636317e-06 0.0
3.5469821930594005e-06 0.0
3.5215873806377017e-06 0.0
3.4953286287639165e-06 0.0
3.468162839874031e-06 0.0
3.4401460794553364e-06 0.0
3.411252925205309e-06 0.0
3.381501004409051e-06 0.0
3.3508096286376413e-06 0.0
3.3192476612493833e-06 0.0
3.286856781072721e-06 0.0
3.253602773308452e-06 0.0
3.2195060780209286e-06 0.0
3.184578725302023e-06 0.0
3.148844128501152e-06 0.0
3.112307688555011e-06 0.0
3.0750158732963985e-06 0.0
3.036959695753113e-06 0.0
2.9981801797426486e-06 0.0
2.958697565765803e-06 0.0
2.918538085783225e-06 0.0
2.877738929561441e-06 0.0
2.8363297150766096e-06 0.0
2.79435535646336e-06 0.0
2.751843176455394e-06 0.0
2.7088122302218963e-06 0.0
2.665300502206618e-06 0.0
2.6213563515245427e-06 0.0
2.577027354399373e-06 0.0
2.532338442134599e-06 0.0
2.4873347595884858e-06 0.0
2.4420539014663406e-06 0.0
2.396527891656774e-06 0.0
2.350807149974162e-06 0.0
2.3049362379844736e-06 0.0
2.2589584445081697e-06 0.0
2.2129077235732336e-06 0.0
2.166826213292964e-06 0.0
2.1207529270421625e-06 0.0
2.0747285457390552e-06 0.0
2.028796510342069e-06 0.0
1.98298267265863e-06 0.0
1.9373425950182947e-06 0.0
1.8919037735169807e-06 0.0
1.8467053775623646e-06 0.0
1.80179418163065e-06 0.0
1.7571823039145012e-06 0.0
1.7129145014619852e-06 0.0
1.6690203933978825e-06 0.0
1.6255363894897978e-06 0.0
1.582482612162023e-06 0.0
1.5398873702161857e-06 0.0
1.4977746223772553e-06 0.0
1.4561677831073727e-06 0.0
1.4151096118555925e-06 0.0
1.3746097416864338e-06 0.0
1.3346888413557206e-06 0.0
1.2953615082143741e-06 0.0
1.256650746111378e-06 0.0
1.2185826021614528e-06 0.0
1.1811972088983717e-06 0.0
1.1444356334505838e-06 0.0
1.1083719451448569e-06 0.0
1.0729735041959091e-06 0.0
1.0382374039224503e-06 0.0
1.0042408533914213e-06 0.0
9.70992231736809e-07 0.0
9.384100956297916e-07 0.0
9.065671619190573e-07 0.0
8.754284131199073e-07 0.0
8.450206925448793e-07 0.0
8.153882041525013e-07 0.0
7.864288998021948e-07 0.0
7.582076482326145e-07 0.0
7.307032589428835e-07 0.0
7.038856993515203e-07 0.0
6.778098879523535e-07 0.0
6.524622391583619e-07 0.0
6.277973886839822e-07 0.0
6.038385920355477e-07 0.0
5.805721253614629e-07 0.0
5.579848335087759e-07 0.0
5.36080233344359e-07 0.0
5.148424851068706e-07 0.0
4.942549883676873e-07 0.0
4.743111726995433e-07 0.0
4.5499353826174726e-07 0.0
4.363112217878933e-07 0.0
4.1824777583559356e-07 0.0
4.007847751803672e-07 0.0
3.839159607045201e-07 0.0
3.6762340520090014e-07 0.0
3.519087453377435e-07 0.0
3.367431652572825e-07 0.0
3.220832550700337e-07 0.0
3.079711177257046e-07 0.0
2.9440695154272424e-07 0.0
2.813169867696959e-07 0.0
2.6869121668652886e-07 0.0
2.565746982856324e-07 0.0
2.449322631535214e-07 0.0
2.3372573239949578e-07 0.0
2.2295196722358537e-07 0.0
2.126066544271066e-07 0.0
2.0265649311238036e-07 0.0
1.931225622955838e-07 0.0
1.8399544278218018e-07 0.0
1.7522419596452505e-07 0.0
1.668147801096612e-07 0.0
1.5876180833615495e-07 0.0
1.510276121092405e-07 0.0
1.436439535037729e-07 0.0
1.3657976937220447e-07 0.0
1.2981686554345143e-07 0.0
1.233595294548447e-07 0.0
1.1719039053925014e-07 0.0
1.1128449187117332e-07 0.0
1.0564355389400039e-07 0.0
1.0025997938080731e-07 0.0
9.512482100468335e-08 0.0
9.022410562077893e-08 0.0
8.555028257812857e-08 0.0
8.109482741184777e-08 0.0
7.685066476614793e-08 0.0
7.28060383440954e-08 0.0
6.895487515123586e-08 0.0
6.528662175541496e-08 0.0
6.179321627235421e-08 0.0
5.847210765519555e-08 0.0
5.531450874251596e-08 0.0
5.231219552754093e-08 0.0
4.9460710244256994e-08 0.0
4.6752001947391764e-08 0.0
4.417715796775508e-08 0.0
4.173380244626078e-08 0.0
3.941322039709024e-08 0.0
3.7211757340868876e-08 0.0
3.5125455074156154e-08 0.0
3.314702309793488e-08 0.0
3.126668106049178e-08 0.0
2.9489967628032924e-08 0.0
2.7806574287000258e-08 0.0
2.6213922400198385e-08 0.0
2.470424278268383e-08 0.0
2.32751642683214e-08 0.0
2.1923306200632742e-08 0.0
2.064444369415557e-08 0.0
1.9434545968915233e-08 0.0
1.82900421786946e-08 0.0
1.7208863428301447e-08 0.0
1.6188401739299903e-08 0.0
1.5224637235971106e-08 0.0
1.4314698785714112e-08 0.0
1.345630623374177e-08 0.0
1.2646372169605476e-08 0.0
1.1880132802820359e-08 0.0
1.1159072681682235e-08 0.0
1.0479729513232476e-08 0.0
9.839721114594419e-09 0.0
9.236127898078665e-09 0.0
8.668189757077907e-09 0.0
8.131467477644857e-09 0.0
7.627716649344403e-09 0.0
7.153334689909857e-09 0.0
6.706641360624136e-09 0.0
6.2867824536149816e-09 0.0
5.8917052932552366e-09 0.0
5.5198516194492635e-09 0.0
5.170276104855698e-09 0.0
4.841668549974586e-09 0.0
4.532864980022373e-09 0.0
4.243621066145526e-09 0.0
3.970903477367841e-09 0.0
3.715309802259926e-09 0.0
3.4752967440089446e-09 0.0
3.2501941379286134e-09 0.0
3.039238090623191e-09 0.0
2.841369930198367e-09 0.0
2.6555481618534054e-09 0.0
2.480941733133573e-09 0.0
2.317615482450646e-09 0.0
2.1651606167552884e-09 0.0
2.0224610951549848e-09 0.0
1.8880882452236326e-09 0.0
1.7624449997741486e-09 0.0
1.6446792872251245e-09 0.0
1.534513207108145e-09 0.0
1.4313724277690865e-09 0.0
1.334970505651049e-09 0.0
1.2448147767918077e-09 0.0
1.1603067863625066e-09 0.0
1.081502022928589e-09 0.0
1.007906809707558e-09 0.0
9.392472023038233e-10 0.0
8.749769847356905e-10 0.0
8.14908360268837e-10 0.0
7.587753570523603e-10 0.0
7.064216493282747e-10 0.0
6.577505619121362e-10 0.0
6.120653694840803e-10 0.0
5.695045273133725e-10 0.0
5.298227226094239e-10 0.0
4.927699919882447e-10 0.0
4.583599645302013e-10 0.0
4.261506885546163e-10 0.0
3.960989666188238e-10 0.0
3.681536080357359e-10 0.0
3.4213383493460373e-10 0.0
3.178398237535892e-10 0.0
2.952432796327475e-10 0.0
2.7420870512198567e-10 0.0
2.5465920342409014e-10 0.0
2.3643560541402435e-10 0.0
2.194120183330574e-10 0.0
2.0365225219384988e-10 0.0
1.7485873430872891e-10 0.0
1.6067558498369365e-10 0.0
1.4650417867552323e-10 0.0
1.3246528788273896e-10 0.0
1.186969301145441e-10 0.0
1.0529652527029856e-10 0.0
9.238889316877312e-11 0.0
8.010725827363851e-11 0.0
6.855440452180231e-11 0.0
5.782806678725695e-11 0.0
4.803407409553959e-11 0.0
3.918729461837035e-11 0.0
3.139075481180804e-11 0.0
2.4604701281091e-11 0.0
1.8821669377806434e-11 0.0
1.4064676792552991e-11 0.0
1.023717767408691e-11 0.0
7.194667247598927e-12 0.0
4.920887701804193e-12 0.0
3.2261384272633856e-12 0.0
2.026317167758885e-12 0.0
1.2124663619108264e-12 0.0
7.007265238046191e-13 0.0
3.728387710445074e-13 0.0
1.9051199381105466e-13 0.0
8.89307604845379e-14 0.0
3.885931690607985e-14 0.0
1.5736091503595506e-14 0.0
5.690186966206004e-15 0.0
1.893609296230012e-15 0.0
5.705266707863509e-16 0.0
1.6428198001647834e-16 0.0
5.792174606817956e-17 0.0
3.250918607531548e-17 0.0
2.1883097036028714e-17 0.0
1.6683683215764644e-17 0.0
1.3707791584923558e-17 0.0
8.713111865472629e-18 0.0
2.4014674549641054e-18 0.0
7.794047500139277e-18 0.0
2.4024991339001104e-17 0.0
5.0323591325057506e-17 0.0
6.703054348840815e-17 0.0
4.702572948981543e-17 0.0
2.5129108905643595e-17 0.0
2.2105637358783415e-17 0.0
4.2243578417981393e-17 0.0
5.882093250639184e-17 0.0
6.758032216217866e-17 0.0
7.14004125192373e-17 0.0
2.785296845273369e-17 0.0
6.345520550913236e-17 0.0
2.9789965558867405e-17 0.0
-1.4441197847246796e-17 0.0
9.910966580569789e-18 0.0
7.818913183733078e-18 0.0
3.317672416181295e-17 0.0
-1.8027614319184453e-17 0.0
2.0836368558507285e-17 0.0
1.1845505280790884e-16 0.0
6.785622721065407e-17 0.0
8.568358808853361e-17 0.0
1.090590588537856e-16 0.0
-5.753117485620042e-17 0.0
1.8704802265080872e-16 0.0
-1.1039247320308757e-16 0.0
8.495295727988358e-17 0.0
7.457765700694549e-17 0.0
-1.186036682070188e-16 0.0
2.332782882573419e-16 0.0
-8.526196544113003e-17 0.0
5.943080888978444e-17 0.0
6.479450506102954e-17 0.0
-1.2554283465856374e-16 0.0
2.848090799632185e-16 0.0
4.7934921251051957e-17 0.0
-2.0548165862430139e-16 0.0
8.280801700908496e-17 0.0
-8.314982994942116e-17 0.0
0.0 0.009234165287258815
0.0 0.022109785930450467
0.0 0.04006285207151993
0.0 0.0650956392632189
-1.146619768901365e-16 0.1
-1.74034857389225e-16 0.1
2.1538914870861455e-15 0.1
-2.5452555202492993e-15 0.1
0.0 0.09234095951662935
0.0 0.0852677944370279
0.0 0.07873568783498318
0.0 0.0727032535816935
0.0 0.06713226878994777
0.0 0.06198743331092028
0.0 0.05723615233795153
0.0 0.052848316929522916
0.0 0.0487961284499439
0.0 0.04505391065784153
0.0 0.04159795282712529
0.0 0.038406357242571354
0.0 0.035458901718223766
0.0 0.032736910873327536
0.0 0.030223137736030616
0.0 0.027901654838205118
0.0 0.025757753001959233
0.0 0.023777848352113194
0.0 0.02194939580780408
0.0 0.020260810255894404
0.0 0.018701392223653492
0.0 0.017261261595035462
0.0 0.0159312933366809
0.0 0.014703060372940365
0.0 0.013568780782904709
0.0 0.012521267482861144
0.0 0.011553883413523553
0.0 0.010660499143843274
0.0 0.009835453922831585
0.0 0.009073520329637935
0.0 0.0083698706087887
0.0 0.00772004630338135
0.0 0.007119930012368596
0.0 0.006565719473424269
0.0 0.006053903138646719
0.0 0.005581237988234003
0.0 0.005144729270256225
0.0 0.004741610689005687
0.0 0.004369334080611733
0.0 0.004025738684965982
0.0 0.003709497801121954
0.0 0.0034198794573321685
0.0 0.0031547127218435633
0.0 0.002911218088256269
0.0 0.0026884024398566237
0.0 0.0024854347754062344
0.0 0.0023002073410726574
0.0 0.0021321132745605316
0.0 0.0019796374003238546
0.0 0.001841231620528289
0.0 0.0017161910534891464
0.0 0.0016036896585743595
0.0 0.001502648507102235
0.0 0.0014123841821656739
0.0 0.0013319536773857782
0.0 0.0012609930969126975
0.0 0.0011987815986109714
0.0 0.0011448813327010366
0.0 0.0010986011242634368
0.0 0.0010593166853219702
0.0 0.0010263315725744118
0.0 0.0009993553338527635
0.0 0.0009778801884237941
0.0 0.0009605526017249126
0.0 0.0009478095873403429
0.0 0.0009375556757405791
0.0 0.0009303991369871208
0.0 0.0009254830982777909
0.0 0.0009220378661406827
0.0 0.0009198213634759738
0.0 0.0009181668622004354
0.0 0.0009171137979341581
0.0 0.0009161413518173399
0.0 0.000915167960796727
0.0 0.0009139623918477149
0.0 0.0009126685698168198
0.0 0.0009111713661039496
0.0 0.0009095065972941512
0.0 0.0009077009186295931
0.0 0.0009056436033665141
0.0 0.0009035110218832467
0.0 0.0009012487243917796
0.0 0.0008990048634039945
1.8582122333622532e-15 0.004927245132658727
2.1400287919188266e-07 0.0027740683426793577
2.7263618133537634e-05 0.0015493178670378215
4.8140905945984636e-05 0.0009737768528203189
3.1416704166653242e-06 0.0014052309204918814
1.7398364331692616e-13 0.002259784942847062
7.022447541501875e-05 0.0007004511168883412
1.0978053467567158e-08 0.001286776880225376
1.4673779226750101e-05 0.0007833707539009512
7.0843843871161076e-06 0.0007693866344777631
2.6283748432824876e-06 0.0007100682888899158
2.3959723569291967e-07 0.0006768107320553311
2.1156015798210164e-16 0.014973736461407764
4.879964907256543e-09 0.000665730226447257
8.98920419228625e-06 0.00047340992543085857
-5.284758103697987e-07 0.00044099198671792444
3.937922627940658e-13 0.0011704180816880145
6.714786124253913e-05 0.0007275893731769275
7.353514817796253e-07 0.0003886318012216714
4.786379999721104e-06 0.00042055565275275357
4.614294873491664e-06 0.00039997242624103846
3.3510249484652507e-06 0.00037736170626052776
1.6177924021945852e-06 0.00037809680306349224
5.027003412948312e-11 0.0006414990120926774
4.796545115365315e-07 0.00035250428361844835
7.150103401914091e-08 0.000391197723979046
-3.1518434405255324e-16 0.048473971154331524
1.9205446738403516e-05 0.0003795177476345861
-2.2554630945973935e-05 0.0002701221224381184