# vtk DataFile Version 3.0
Some data
ASCII
DATASET UNSTRUCTURED_GRID
POINTS 7930 float
0.0 0.0 0.0
0.0 10.0 0.0
10.0 10.0 0.0
10.0 0.0 0.0
0.5 0.0 0.0
0.0009999999999981016 0.0 0.0
0.001999999999996203 0.0 0.0
0.002999999999994305 0.0 0.0
0.003999999999992409 0.0 0.0
0.004999999999990531 0.0 0.0
0.005999999999988653 0.0 0.0
0.006999999999986775 0.0 0.0
0.007999999999984898 0.0 0.0
0.008999999999983018 0.0 0.0
0.009999999999981142 0.0 0.0
0.01099999999997926 0.0 0.0
0.01199999999997736 0.0 0.0
0.0129999999999754 0.0 0.0
0.01399999999997343 0.0 0.0
0.01499999999997147 0.0 0.0
0.01599999999996944 0.0 0.0
0.0169999999999673 0.0 0.0
0.01799999999996516 0.0 0.0
0.01899999999996302 0.0 0.0
0.01999999999996084 0.0 0.0
0.02099999999995862 0.0 0.0
0.02199999999995639 0.0 0.0
0.02299999999995417 0.0 0.0
0.02399999999995195 0.0 0.0
0.02499999999994972 0.0 0.0
0.0259999999999475 0.0 0.0
0.02699999999994527 0.0 0.0
0.02799999999994315 0.0 0.0
0.0289999999999411 0.0 0.0
0.02999999999993905 0.0 0.0
0.030999999999937 0.0 0.0
0.03199999999993521 0.0 0.0
0.0329999999999335 0.0 0.0
0.0339999999999318 0.0 0.0
0.03499999999993009 0.0 0.0
0.03599999999992853 0.0 0.0
0.036999999999927 0.0 0.0
0.03799999999992547 0.0 0.0
0.03899999999992394 0.0 0.0
0.03999999999992241 0.0 0.0
0.04099999999992088 0.0 0.0
0.04199999999991934 0.0 0.0
0.04299999999991782 0.0 0.0
0.04399999999991629 0.0 0.0
0.04499999999991475 0.0 0.0
0.04599999999991322 0.0 0.0
0.0469999999999117 0.0 0.0
0.04799999999991016 0.0 0.0
0.04899999999990863 0.0 0.0
0.0499999999999071 0.0 0.0
0.05099999999990557 0.0 0.0
0.05199999999990404 0.0 0.0
0.05299999999990251 0.0 0.0
0.05399999999990097 0.0 0.0
0.05499999999989943 0.0 0.0
0.05599999999989791 0.0 0.0
0.05699999999989638 0.0 0.0
0.05799999999989484 0.0 0.0
0.05899999999989317 0.0 0.0
0.05999999999989129 0.0 0.0
0.06099999999988941 0.0 0.0
0.06199999999988753 0.0 0.0
0.06299999999988531 0.0 0.0
0.06399999999988273 0.0 0.0
0.06499999999988015 0.0 0.0
0.06599999999987759 0.0 0.0
0.0669999999998748 0.0 0.0
0.06799999999987189 0.0 0.0
0.06899999999986897 0.0 0.0
0.06999999999986604 0.0 0.0
0.07099999999986313 0.0 0.0
0.0719999999998602 0.0 0.0
0.07299999999985729 0.0 0.0
0.07399999999985438 0.0 0.0
0.07499999999985145 0.0 0.0
0.07599999999984854 0.0 0.0
0.07699999999984562 0.0 0.0
0.0779999999998427 0.0 0.0
0.07899999999983978 0.0 0.0
0.07999999999983685 0.0 0.0
0.08099999999983394 0.0 0.0
0.08199999999983103 0.0 0.0
0.0829999999998281 0.0 0.0
0.08399999999982519 0.0 0.0
0.08499999999982226 0.0 0.0
0.08599999999981935 0.0 0.0
0.08699999999981643 0.0 0.0
0.0879999999998135 0.0 0.0
0.08899999999981059 0.0 0.0
0.08999999999980766 0.0 0.0
0.09099999999980475 0.0 0.0
0.09199999999980184 0.0 0.0
0.09299999999979891 0.0 0.0
0.093999999999796 0.0 0.0
0.09499999999979307 0.0 0.0
0.09599999999979016 0.0 0.0
0.09699999999978724 0.0 0.0
0.09799999999978432 0.0 0.0
0.0989999999997814 0.0 0.0
0.09999999999977847 0.0 0.0
0.1009999999997756 0.0 0.0
0.1019999999997726 0.0 0.0
0.1029999999997697 0.0 0.0
0.1039999999997668 0.0 0.0
0.1049999999997639 0.0 0.0
0.105999999999761 0.0 0.0
0.106999999999758 0.0 0.0
0.1079999999997551 0.0 0.0
0.1089999999997522 0.0 0.0
0.1099999999997493 0.0 0.0
0.1109999999997464 0.0 0.0
0.1119999999997434 0.0 0.0
0.1129999999997405 0.0 0.0
0.1139999999997376 0.0 0.0
0.1149999999997347 0.0 0.0
0.1159999999997318 0.0 0.0
0.1169999999997288 0.0 0.0
0.1179999999997259 0.0 0.0
0.118999999999723 0.0 0.0
0.1199999999997201 0.0 0.0
0.1209999999997172 0.0 0.0
0.1219999999997143 0.0 0.0
0.1229999999997113 0.0 0.0
0.1239999999997084 0.0 0.0
0.1249999999997055 0.0 0.0
0.1259999999997026 0.0 0.0
0.1269999999996997 0.0 0.0
0.1279999999996967 0.0 0.0
0.1289999999996938 0.0 0.0
0.1299999999996909 0.0 0.0
0.130999999999688 0.0 0.0
0.1319999999996851 0.0 0.0
0.1329999999996822 0.0 0.0
0.1339999999996792 0.0 0.0
0.1349999999996764 0.0 0.0
0.1359999999996734 0.0 0.0
0.1369999999996705 0.0 0.0
0.1379999999996676 0.0 0.0
0.1389999999996647 0.0 0.0
0.1399999999996618 0.0 0.0
0.1409999999996588 0.0 0.0
0.1419999999996559 0.0 0.0
0.142999999999653 0.0 0.0
0.1439999999996501 0.0 0.0
0.1449999999996472 0.0 0.0
0.1459999999996442 0.0 0.0
0.1469999999996414 0.0 0.0
0.1479999999996384 0.0 0.0
0.1489999999996355 0.0 0.0
0.1499999999996326 0.0 0.0
0.1509999999996297 0.0 0.0
0.1519999999996268 0.0 0.0
0.1529999999996239 0.0 0.0
0.1539999999996209 0.0 0.0
0.154999999999618 0.0 0.0
0.1559999999996151 0.0 0.0
0.1569999999996122 0.0 0.0
0.1579999999996093 0.0 0.0
0.1589999999996064 0.0 0.0
0.1599999999996035 0.0 0.0
0.1609999999996005 0.0 0.0
0.1619999999995976 0.0 0.0
0.1629999999995947 0.0 0.0
0.1639999999995918 0.0 0.0
0.1649999999995889 0.0 0.0
0.165999999999586 0.0 0.0
0.1669999999995831 0.0 0.0
0.1679999999995801 0.0 0.0
0.1689999999995772 0.0 0.0
0.1699999999995743 0.0 0.0
0.1709999999995714 0.0 0.0
0.1719999999995685 0.0 0.0
0.1729999999995655 0.0 0.0
0.1739999999995626 0.0 0.0
0.1749999999995597 0.0 0.0
0.1759999999995568 0.0 0.0
0.1769999999995539 0.0 0.0
0.177999999999551 0.0 0.0
0.178999999999548 0.0 0.0
0.1799999999995451 0.0 0.0
0.1809999999995422 0.0 0.0
0.1819999999995393 0.0 0.0
0.1829999999995364 0.0 0.0
0.1839999999995335 0.0 0.0
0.1849999999995305 0.0 0.0
0.1859999999995277 0.0 0.0
0.1869999999995247 0.0 0.0
0.1879999999995218 0.0 0.0
0.1889999999995189 0.0 0.0
0.189999999999516 0.0 0.0
0.1909999999995131 0.0 0.0
0.1919999999995101 0.0 0.0
0.1929999999995072 0.0 0.0
0.1939999999995043 0.0 0.0
0.1949999999995014 0.0 0.0
0.1959999999994985 0.0 0.0
0.1969999999994956 0.0 0.0
0.1979999999994927 0.0 0.0
0.1989999999994897 0.0 0.0
0.1999999999994868 0.0 0.0
0.2009999999994839 0.0 0.0
0.201999999999481 0.0 0.0
0.2029999999994781 0.0 0.0
0.2039999999994752 0.0 0.0
0.2049999999994722 0.0 0.0
0.2059999999994693 0.0 0.0
0.2069999999994664 0.0 0.0
0.2079999999994635 0.0 0.0
0.2089999999994606 0.0 0.0
0.2099999999994577 0.0 0.0
0.2109999999994548 0.0 0.0
0.2119999999994518 0.0 0.0
0.2129999999994489 0.0 0.0
0.213999999999446 0.0 0.0
0.2149999999994431 0.0 0.0
0.2159999999994402 0.0 0.0
0.2169999999994373 0.0 0.0
0.2179999999994343 0.0 0.0
0.2189999999994314 0.0 0.0
0.2199999999994285 0.0 0.0
0.2209999999994256 0.0 0.0
0.2219999999994227 0.0 0.0
0.2229999999994198 0.0 0.0
0.2239999999994168 0.0 0.0
0.2249999999994139 0.0 0.0
0.225999999999411 0.0 0.0
0.2269999999994081 0.0 0.0
0.2279999999994052 0.0 0.0
0.2289999999994023 0.0 0.0
0.2299999999993994 0.0 0.0
0.2309999999993964 0.0 0.0
0.2319999999993935 0.0 0.0
0.2329999999993906 0.0 0.0
0.2339999999993877 0.0 0.0
0.2349999999993848 0.0 0.0
0.2359999999993818 0.0 0.0
0.236999999999379 0.0 0.0
0.237999999999376 0.0 0.0
0.2389999999993731 0.0 0.0
0.2399999999993702 0.0 0.0
0.2409999999993673 0.0 0.0
0.2419999999993644 0.0 0.0
0.2429999999993615 0.0 0.0
0.2439999999993585 0.0 0.0
0.2449999999993556 0.0 0.0
0.2459999999993527 0.0 0.0
0.246999999999351 0.0 0.0
0.2479999999993495 0.0 0.0
0.248999999999348 0.0 0.0
0.2499999999993464 0.0 0.0
0.2509999999993477 0.0 0.0
0.2519999999993489 0.0 0.0
0.2529999999993502 0.0 0.0
0.2539999999993516 0.0 0.0
0.2549999999993542 0.0 0.0
0.2559999999993569 0.0 0.0
0.2569999999993595 0.0 0.0
0.2579999999993621 0.0 0.0
0.2589999999993647 0.0 0.0
0.2599999999993673 0.0 0.0
0.26099999999937 0.0 0.0
0.2619999999993726 0.0 0.0
0.2629999999993753 0.0 0.0
0.2639999999993779 0.0 0.0
0.2649999999993806 0.0 0.0
0.2659999999993832 0.0 0.0
0.2669999999993858 0.0 0.0
0.2679999999993884 0.0 0.0
0.2689999999993911 0.0 0.0
0.2699999999993937 0.0 0.0
0.2709999999993963 0.0 0.0
0.271999999999399 0.0 0.0
0.2729999999994017 0.0 0.0
0.2739999999994043 0.0 0.0
0.2749999999994069 0.0 0.0
0.2759999999994096 0.0 0.0
0.2769999999994122 0.0 0.0
0.2779999999994148 0.0 0.0
0.2789999999994174 0.0 0.0
0.2799999999994201 0.0 0.0
0.2809999999994228 0.0 0.0
0.2819999999994254 0.0 0.0
0.282999999999428 0.0 0.0
0.2839999999994306 0.0 0.0
0.2849999999994333 0.0 0.0
0.2859999999994359 0.0 0.0
0.2869999999994385 0.0 0.0
0.2879999999994411 0.0 0.0
0.2889999999994439 0.0 0.0
0.2899999999994465 0.0 0.0
0.2909999999994491 0.0 0.0
0.2919999999994517 0.0 0.0
0.2929999999994544 0.0 0.0
0.293999999999457 0.0 0.0
0.2949999999994596 0.0 0.0
0.2959999999994622 0.0 0.0
0.2969999999994649 0.0 0.0
0.2979999999994676 0.0 0.0
0.2989999999994702 0.0 0.0
0.2999999999994728 0.0 0.0
0.3009999999994754 0.0 0.0
0.3019999999994781 0.0 0.0
0.3029999999994807 0.0 0.0
0.3039999999994834 0.0 0.0
0.304999999999486 0.0 0.0
0.3059999999994886 0.0 0.0
0.3069999999994913 0.0 0.0
0.3079999999994939 0.0 0.0
0.3089999999994965 0.0 0.0
0.3099999999994992 0.0 0.0
0.3109999999995018 0.0 0.0
0.3119999999995045 0.0 0.0
0.3129999999995071 0.0 0.0
0.3139999999995097 0.0 0.0
0.3149999999995123 0.0 0.0
0.315999999999515 0.0 0.0
0.3169999999995176 0.0 0.0
0.3179999999995203 0.0 0.0
0.3189999999995229 0.0 0.0
0.3199999999995256 0.0 0.0
0.3209999999995282 0.0 0.0
0.3219999999995308 0.0 0.0
0.3229999999995334 0.0 0.0
0.323999999999536 0.0 0.0
0.3249999999995387 0.0 0.0
0.3259999999995414 0.0 0.0
0.326999999999544 0.0 0.0
0.3279999999995466 0.0 0.0
0.3289999999995493 0.0 0.0
0.3299999999995519 0.0 0.0
0.3309999999995545 0.0 0.0
0.3319999999995571 0.0 0.0
0.3329999999995598 0.0 0.0
0.3339999999995625 0.0 0.0
0.3349999999995651 0.0 0.0
0.3359999999995677 0.0 0.0
0.3369999999995703 0.0 0.0
0.337999999999573 0.0 0.0
0.3389999999995756 0.0 0.0
0.3399999999995783 0.0 0.0
0.3409999999995809 0.0 0.0
0.3419999999995835 0.0 0.0
0.3429999999995862 0.0 0.0
0.3439999999995888 0.0 0.0
0.3449999999995914 0.0 0.0
0.345999999999594 0.0 0.0
0.3469999999995967 0.0 0.0
0.3479999999995994 0.0 0.0
0.348999999999602 0.0 0.0
0.3499999999996046 0.0 0.0
0.3509999999996072 0.0 0.0
0.3519999999996099 0.0 0.0
0.3529999999996125 0.0 0.0
0.3539999999996151 0.0 0.0
0.3549999999996178 0.0 0.0
0.3559999999996205 0.0 0.0
0.3569999999996231 0.0 0.0
0.3579999999996257 0.0 0.0
0.3589999999996283 0.0 0.0
0.359999999999631 0.0 0.0
0.3609999999996336 0.0 0.0
0.3619999999996362 0.0 0.0
[...]
POINT_DATA 7930
SCALARS Disp float 2
LOOKUP_TABLE default
0.0 0.0008550079248786803
0.0 0.1
0.0 0.1
0.0 0.0
3.9788583991641924e-11 0.0
-6.93461559861698e-06 0.0008548191357267654
-1.3813320148771217e-05 0.0008539235067836111
-2.050358457242808e-05 0.0008521104649857762
-2.7122796479050742e-05 0.000850313280158676
-3.398898363623791e-05 0.0008489605453212327
-4.12471537646864e-05 0.0008463477111973271
-4.80513591446631e-05 0.0008413963689209865
-5.430267457039417e-05 0.0008369568711017884
-6.104066695365689e-05 0.0008338985483476798
-6.832507410457001e-05 0.0008300565505888645
-7.545394140300974e-05 0.000822695823572546
-8.173213515692966e-05 0.0008155559283942096
-8.849956197976492e-05 0.0008103488570652108
-9.581853762006951e-05 0.0008038422124739214
-0.00010276960937464747 0.000793943278243631
-0.00010877872035108287 0.0007840795698210648
-0.00011515253186567208 0.0007767466234890625
-0.0001227696691607868 0.0007681959213942513
-0.00013011272957707672 0.0007556289913788214
-0.0001361045640554543 0.0007423615361169695
-0.0001424521523799596 0.0007324811055890266
-0.00015020413448709106 0.000721214621314871
-0.00015762099392700399 0.0007049880358958676
-0.00016361326051300159 0.000687843187520789
-0.0001697779585342724 0.0006740923517218964
-0.00017744183857173774 0.0006594167775797455
-0.00018460316833656738 0.0006392597435145143
-0.00019070234433046757 0.0006178166353667659
-0.00019680211774270747 0.00059938266275159
-0.0002045859762110342 0.0005796810095194102
-0.00021189062307647448 0.0005539571251512774
-0.0002183332363260727 0.0005255498896661519
-0.0002245661151673303 0.0004994393670116312
-0.0002314547170290824 0.00047172576619821483
-0.00023885559066532414 0.0004358903662859524
-0.00024544974536203204 0.0003950748915764041
-0.00025090207484483156 0.00035443078311412783
-0.00025837969176258595 0.0003072473973383388
-0.0002632994448205404 0.0002438899777029142
-0.00026266881390242584 0.0001560317350841469
-0.0002421331876406343 0.0
-0.00021848054324359706 0.0
-0.00019768738387235526 0.0
-0.0001816077614981449 0.0
-0.00017047608406285894 0.0
-0.00016106250231645849 0.0
-0.00015316994392976916 0.0
-0.00014617161333279472 0.0
-0.00013986773402080568 0.0
-0.0001341484846931651 0.0
-0.0001289388241423587 0.0
-0.00012420338351637122 0.0
-0.00011983242836953586 0.0
-0.00011558255022274319 0.0
-0.00011172564483552755 0.0
-0.00010812735139032723 0.0
-0.00010474575687166547 0.0
-0.00010153694529425777 0.0
-9.851312048673273e-05 0.0
-9.564257809299e-05 0.0
-9.289526816585036e-05 0.0
-9.028352561983753e-05 0.0
-8.779150886240888e-05 0.0
-8.540214840595355e-05 0.0
-8.312136782114867e-05 0.0
-8.094335179233108e-05 0.0
-7.885013738056253e-05 0.0
-7.683953822089511e-05 0.0
-7.49138609015678e-05 0.0
-7.306738168508955e-05 0.0
-7.128448982903004e-05 0.0
-6.956752952592257e-05 0.0
-6.791103308863008e-05 0.0
-6.630438632583351e-05 0.0
-6.475319951352015e-05 0.0
-6.325411204889761e-05 0.0
-6.180187543084016e-05 0.0
-6.0394595538195376e-05 0.0
-5.902396249338504e-05 0.0
-5.769441265030888e-05 0.0
-5.6403229153747405e-05 0.0
-5.5145622856420074e-05 0.0
-5.392142792197179e-05 0.0
-5.273382418752196e-05 0.0
-5.157372422216906e-05 0.0
-5.0442307864863976e-05 0.0
-4.9342574972039255e-05 0.0
-4.827186775936712e-05 0.0
-4.7230494381527375e-05 0.0
-4.62139597449642e-05 0.0
-4.522357919205597e-05 0.0
-4.4257887395782304e-05 0.0
-4.331488994571674e-05 0.0
-4.239460106188295e-05 0.0
-4.149754829867537e-05 0.0
-4.0620927093984956e-05 0.0
-3.976154570029122e-05 0.0
-3.8920841216197564e-05 0.0
-3.8095579296879035e-05 0.0
-3.728845897500711e-05 0.0
-3.649645985789933e-05 0.0
-3.57209263538056e-05 0.0
-3.496043536383084e-05 0.0
-3.4214488093098946e-05 0.0
-3.348236365008118e-05 0.0
-3.2760438097309804e-05 0.0
-3.205378060579924e-05 0.0
-3.1363851355930155e-05 0.0
-3.067897373667161e-05 0.0
-3.000979686314843e-05 0.0
-2.9353529132812454e-05 0.0
-2.8707862247019815e-05 0.0
-2.80746859658005e-05 0.0
-2.745362867052849e-05 0.0
-2.6843425651122798e-05 0.0
-2.6245279556224527e-05 0.0
-2.5659368385331676e-05 0.0
-2.508509024675791e-05 0.0
-2.452441563847559e-05 0.0
-2.3969670076618436e-05 0.0
-2.3427886328388295e-05 0.0
-2.2895583198025564e-05 0.0
-2.237477393923345e-05 0.0
-2.1861617840267025e-05 0.0
-2.135850497411926e-05 0.0
-2.0864278403820714e-05 0.0
-2.0378689162043412e-05 0.0
-1.9900994996963778e-05 0.0
-1.9431354996199148e-05 0.0
-1.896922482092707e-05 0.0
-1.851420402004635e-05 0.0
-1.8065895185965005e-05 0.0
-1.762499457609993e-05 0.0
-1.719152497040016e-05 0.0
-1.676150469214575e-05 0.0
-1.633879017906625e-05 0.0
-1.5921330195961992e-05 0.0
-1.5509645068431766e-05 0.0
-1.5103190059561953e-05 0.0
-1.4702124516668012e-05 0.0
-1.4306722140162877e-05 0.0
-1.3916772692436855e-05 0.0
-1.3532255170669888e-05 0.0
-1.315266243169407e-05 0.0
-1.2778659027470308e-05 0.0
-1.2410376941651759e-05 0.0
-1.204748918451312e-05 0.0
-1.1690083333227959e-05 0.0
-1.1338104134302239e-05 0.0
-1.0991685669511509e-05 0.0
-1.065084047484818e-05 0.0
-1.0315761990242804e-05 0.0
-9.986074896717086e-06 0.0
-9.661714533166114e-06 0.0
-9.343306995952446e-06 0.0
-9.030740207656415e-06 0.0
-8.723276927874427e-06 0.0
-8.421487671935213e-06 0.0
-8.12508843790304e-06 0.0
-7.834144646447968e-06 0.0
-7.5487127701645715e-06 0.0
-7.267485547658848e-06 0.0
-6.991550446344907e-06 0.0
-6.720698986293871e-06 0.0
-6.45462537222927e-06 0.0
-6.193136658707517e-06 0.0
-5.9360766894551644e-06 0.0
-5.6831173332849105e-06 0.0
-5.4341585939066e-06 0.0
-5.189207451677048e-06 0.0
-4.9479033936883324e-06 0.0
-4.710120801626423e-06 0.0
-4.475995935952788e-06 0.0
-4.245334649305359e-06 0.0
-4.01780797722354e-06 0.0
-3.7933810802743433e-06 0.0
-3.572101266142944e-06 0.0
-3.353801293843956e-06 0.0
-3.1381129206585185e-06 0.0
-2.925271051277346e-06 0.0
-2.715185113057365e-06 0.0
-2.507699476773884e-06 0.0
-2.302878043528389e-06 0.0
-2.100595618106485e-06 0.0
-1.9009691575211107e-06 0.0
-1.7039180381972125e-06 0.0
-1.5094917659319855e-06 0.0
-1.317820646797225e-06 0.0
-1.1289631984764474e-06 0.0
-9.428124379897593e-07 0.0
-7.596020354488915e-07 0.0
-5.792839723420806e-07 0.0
-4.0197085793385274e-07 0.0
-2.2771635874476968e-07 0.0
-5.6931404134224294e-08 0.0
1.1051111535345761e-07 0.0
2.747552850888668e-07 0.0
4.3532389055966605e-07 0.0
5.924039676161345e-07 0.0
7.457046953065726e-07 0.0
8.952861592928273e-07 0.0
1.0411707936708271e-06 0.0
1.182770635044e-06 0.0
1.320184284343362e-06 0.0
1.4534506043875761e-06 0.0
1.5828231500740832e-06 0.0
1.7078486094609742e-06 0.0
1.8287185340969989e-06 0.0
1.945282796930604e-06 0.0
2.05743367361082e-06 0.0
2.1650809216297097e-06 0.0
2.268585098850789e-06 0.0
2.3677826554356416e-06 0.0
2.462434289140542e-06 0.0
2.5529593593613184e-06 0.0
2.6393440631020524e-06 0.0
2.7215530031046897e-06 0.0
2.7995245356697017e-06 0.0
2.8733460034805385e-06 0.0
2.9433046686417467e-06 0.0
3.0092018229255677e-06 0.0
3.071327243472403e-06 0.0
3.129855168972853e-06 0.0
3.1847689112754517e-06 0.0
3.2361747072808747e-06 0.0
3.284000915206417e-06 0.0
3.328596820216939e-06 0.0
3.370040127901552e-06 0.0
3.4084430050739823e-06 0.0
3.444151739361351e-06 0.0
3.4768724603534547e-06 0.0
3.506830798701306e-06 0.0
3.5343516090937014e-06 0.0
3.5593164068988904e-06 0.0
3.5818844082428335e-06 0.0
3.602324046964605e-06 0.0
3.6206712671953923e-06 0.0
3.6368774853500103e-06 0.0
3.6511741874721026e-06 0.0
3.6637129518501516e-06 0.0
3.6744436221817813e-06 0.0
3.6834936620901057e-06 0.0
3.691131178538819e-06 0.0
3.6972138213700822e-06 0.0
3.7018073614855347e-06 0.0
3.705095833400476e-06 0.0
3.706970912233251e-06 0.0
3.70763516046758e-06 0.0
3.7070511481371743e-06 0.0
3.7052521443092563e-06 0.0
3.702373651657995e-06 0.0
3.6983628256245955e-06 0.0
3.693198570441132e-06 0.0
3.6870617316454794e-06 0.0
3.6798789706407477e-06 0.0
3.671686656859034e-06 0.0
3.662433683582819e-06 0.0
3.6521523269486473e-06 0.0
3.640852737385747e-06 0.0
3.628563473699889e-06 0.0
3.6152703588903864e-06 0.0
3.600989620965384e-06 0.0
3.585685770604982e-06 0.0
3.569380761011362e-06 0.0
3.552103393387681e-06 0.0
3.533798671243232e-06 0.0
3.514466403653261e-06 0.0
3.494139106514668e-06 0.0
3.4726854151410335e-06 0.0
3.450453344036654e-06 0.0
3.4270692666996986e-06 0.0
3.402664224525276e-06 0.0
3.377264696296454e-06 0.0
3.3508284130425187e-06 0.0
3.3234041324700224e-06 0.0
3.2949421418766468e-06 0.0
3.265484687619521e-06 0.0
3.2350675921573837e-06 0.0
3.203664493479238e-06 0.0
3.1713461794418475e-06 0.0
3.138041265221183e-06 0.0
3.103779161610618e-06 0.0
3.0686618506633647e-06 0.0
3.032659840520155e-06 0.0
2.9958284154762168e-06 0.0
2.958172184949356e-06 0.0
2.9196964178019494e-06 0.0
2.8804711933563266e-06 0.0
2.840505410792978e-06 0.0
2.799859451843166e-06 0.0
2.7585660400012974e-06 0.0
2.716668312756098e-06 0.0
2.674153661377822e-06 0.0
2.631105285833134e-06 0.0
2.5875700747261e-06 0.0
2.5435788492186903e-06 0.0
2.4991761500580766e-06 0.0
2.454405142181247e-06 0.0
2.40931163805492e-06 0.0
2.3639378166884734e-06 0.0
2.3183362288742935e-06 0.0
2.2725432483647883e-06 0.0
2.226607424708435e-06 0.0
2.1805732636042827e-06 0.0
2.1344852587783337e-06 0.0
2.0883876095021877e-06 0.0
2.0423232817856014e-06 0.0
1.9963350609705926e-06 0.0
1.950462879192729e-06 0.0
1.9047524450271973e-06 0.0
1.859244685912278e-06 0.0
1.813974232591388e-06 0.0
1.7689716253895456e-06 0.0
1.7242829809685731e-06 0.0
1.6799368647734733e-06 0.0
1.635970165232663e-06 0.0
1.5924326254270815e-06 0.0
1.5493497064154724e-06 0.0
1.5067415181416863e-06 0.0
1.4646056664003998e-06 0.0
1.4230057092582002e-06 0.0
1.3819712483154746e-06 0.0
1.3414834609117693e-06 0.0
1.3016004306435666e-06 0.0
1.2623577549287566e-06 0.0
1.2237163778741967e-06 0.0
1.1857582695720074e-06 0.0
1.1484633232114666e-06 0.0
1.1118520823720968e-06 0.0
1.0759634226552332e-06 0.0
1.0407597376873298e-06 0.0
1.0062734409464894e-06 0.0
9.72509354108026e-07 0.0
9.39484266449676e-07 0.0
9.071884501084975e-07 0.0
8.75627113655274e-07 0.0
8.447996604324897e-07 0.0
8.147052226016945e-07 0.0
7.853696420081968e-07 0.0
7.567749930390456e-07 0.0
7.289198338366572e-07 0.0
7.017944464648997e-07 0.0
6.754015877914792e-07 0.0
6.497468341788133e-07 0.0
6.248516841809692e-07 0.0
6.006297644293193e-07 0.0
5.771406065587147e-07 0.0
5.543316199493768e-07 0.0
5.321842480708653e-07 0.0
5.107545735667552e-07 0.0
4.900324787487775e-07 0.0
4.699278572199456e-07 0.0
4.5049127376694833e-07 0.0
4.3167856555867106e-07 0.0
4.134996523197853e-07 0.0
3.959777425050368e-07 0.0
3.7901582565808463e-07 0.0
3.626563740301904e-07 0.0
3.468711653160286e-07 0.0
3.316269285513429e-07 0.0
3.1695575416487386e-07 0.0
3.028369801605029e-07 0.0
2.892279791409085e-07 0.0
2.7613703651375087e-07 0.0
2.635461988950222e-07 0.0
2.514380127186101e-07 0.0
2.398075049283415e-07 0.0
2.286366155931175e-07 0.0
2.17907113793879e-07 0.0
2.0760865031757342e-07 0.0
1.9772284329901445e-07 0.0
1.8825004799363108e-07 0.0
1.7917405797072113e-07 0.0
1.7047775398949873e-07 0.0
1.621521075649144e-07 0.0
1.5418126651809864e-07 0.0
1.4656162519759797e-07 0.0
1.3927134854179845e-07 0.0
1.322810438831723e-07 0.0
1.2561133441811295e-07 0.0
1.192581637492785e-07 0.0
1.1317586415470687e-07 0.0
1.073558414981573e-07 0.0
1.0181995476794826e-07 0.0
9.654547662745504e-08 0.0
9.15086942344254e-08 0.0
8.670534891478097e-08 0.0
8.213057154954792e-08 0.0
7.776441634145752e-08 0.0
7.361555020391738e-08 0.0
6.96766203356485e-08 0.0
6.591954744380415e-08 0.0
6.234544814131161e-08 0.0
5.894978381204304e-08 0.0
5.571221047690076e-08 0.0
5.264657272773056e-08 0.0
4.973608319391824e-08 0.0
4.697047104802788e-08 0.0
4.435031433231971e-08 0.0
4.186598620833012e-08 0.0
3.9504642582516834e-08 0.0
3.726587173649127e-08 0.0
3.514506992896762e-08 0.0
3.3137070368611245e-08 0.0
3.1234586479672364e-08 0.0
2.9433253668938732e-08 0.0
2.772843045833605e-08 0.0
2.6116143827998998e-08 0.0
2.4590508458655662e-08 0.0
2.3148117400261142e-08 0.0
2.1783764895162563e-08 0.0
2.0493363108486064e-08 0.0
1.9275221689103912e-08 0.0
1.812508046554372e-08 0.0
1.703899484126538e-08 0.0
1.60145784340278e-08 0.0
1.5048065926915904e-08 0.0
1.4135418628390397e-08 0.0
1.3275244690685405e-08 0.0
1.2463665788999991e-08 0.0
1.1698873039118783e-08 0.0
1.0978950291777764e-08 0.0
1.0300736331593433e-08 0.0
9.660161055886567e-09 0.0
9.059026074893974e-09 0.0
8.493132386617058e-09 0.0
7.961243760237288e-09 0.0
7.460220306670695e-09 0.0
6.988960282325404e-09 0.0
6.546000786297628e-09 0.0
6.129599670178213e-09 0.0
5.7381070712977344e-09 0.0
5.370057459109265e-09 0.0
5.024543910835076e-09 0.0
4.700488255037699e-09 0.0
4.396312716819285e-09 0.0
4.110886857026653e-09 0.0
3.843290276586189e-09 0.0
3.5923379406852264e-09 0.0
3.356289133418697e-09 0.0
3.1355433252093833e-09 0.0
2.92882557123306e-09 0.0
2.7352449591026893e-09 0.0
2.5537452331768015e-09 0.0
2.383991640773737e-09 0.0
2.2244596183517834e-09 0.0
2.075649413426572e-09 0.0
1.9363246985924046e-09 0.0
1.805886319209454e-09 0.0
1.6840005626819207e-09 0.0
1.5699636979904803e-09 0.0
1.4632349005996754e-09 0.0
1.3634731110334526e-09 0.0
1.2702251646037295e-09 0.0
1.1830911708203234e-09 0.0
1.1019557536996624e-09 0.0
1.025856252482596e-09 0.0
9.549455864306852e-10 0.0
8.887247170556345e-10 0.0
8.269647859179331e-10 0.0
7.694095247237942e-10 0.0
7.157201764086233e-10 0.0
6.655684199979432e-10 0.0
6.186913757115564e-10 0.0
5.750878534242205e-10 0.0
5.346184192235131e-10 0.0
4.969444190267789e-10 0.0
4.616424438532454e-10 0.0
4.2881357327145483e-10 0.0
3.9820331852565616e-10 0.0
3.6972083517881183e-10 0.0
3.4319418401521445e-10 0.0
3.1853245455124166e-10 0.0
2.9558940248649497e-10 0.0
2.7419146849988583e-10 0.0
2.5434487217853674e-10 0.0
2.359070852284538e-10 0.0
2.1879636447688777e-10 0.0
2.0285921797814988e-10 0.0
1.8803912915084862e-10 0.0
1.742597372628283e-10 0.0
1.6147398979155418e-10 0.0
1.4965110081812718e-10 0.0
1.3860453380811417e-10 0.0
1.2836607941860412e-10 0.0
1.1886831498910119e-10 0.0
1.1004316121973811e-10 0.0
1.0189031444931343e-10 0.0
9.429456754499529e-11 0.0
8.724201548522145e-11 0.0
8.071693894463178e-11 0.0
7.46714434706949e-11 0.0
6.905346429622018e-11 0.0
6.385390409948143e-11 0.0
5.903722877494913e-11 0.0
5.458263723102477e-11 0.0
5.044973843625657e-11 0.0
4.660648409001479e-11 0.0
4.30666224229996e-11 0.0
3.664463187059576e-11 0.0
3.3505241589924425e-11 0.0
3.0385454711239886e-11 0.0
2.7313217799319896e-11 0.0
2.4319806289276645e-11 0.0
2.142663254701072e-11 0.0
1.8660797169556378e-11 0.0
1.6050744205141702e-11 0.0
1.361718779817633e-11 0.0
1.1379219072889747e-11 0.0
9.356932671904027e-12 0.0
7.5501071734506e-12 0.0
5.97701620476935e-12 0.0
4.625235252913783e-12 0.0
3.4889666583397172e-12 0.0
2.568675148875162e-12 0.0
1.840269409202871e-12 0.0
1.270883462444778e-12 0.0
8.535235078971092e-13 0.0
5.483918003481647e-13 0.0
3.370384743462631e-13 0.0
1.969461953328445e-13 0.0
1.1111661790844093e-13 0.0
5.747273606946667e-14 0.0
2.8554723989985414e-14 0.0
1.2913944207087781e-14 0.0
5.466818546223138e-15 0.0
2.1470278042906035e-15 0.0
7.568603957768594e-16 0.0
2.5399363414746747e-16 0.0
8.840700456519857e-17 0.0
4.023583790824461e-17 0.0
2.890190141714198e-17 0.0
2.607281607348728e-17 0.0
2.2176408877114862e-17 0.0
1.8904700433254798e-17 0.0
1.5392604791523903e-17 0.0
7.174589167066276e-18 0.0
1.7324900626680768e-18 0.0
2.517180809275261e-18 0.0
1.0613017978106937e-17 0.0
2.952300000457749e-17 0.0
5.647025180362035e-17 0.0
4.794518813611317e-17 0.0
2.7755350180861282e-17 0.0
2.5170487216046256e-17 0.0
5.146960006771757e-17 0.0
5.585511482425329e-17 0.0
5.737517199906265e-17 0.0
5.932198468783715e-17 0.0
3.288051454626365e-17 0.0
3.978040326808869e-17 0.0
3.0728640962396395e-17 0.0
-2.3768841913123932e-17 0.0
1.9597165940389076e-17 0.0
2.047441701138869e-17 0.0
4.031693698339673e-17 0.0
7.316001309266021e-19 0.0
2.5113899176116068e-17 0.0
1.0836566043258558e-16 0.0
6.640167464559422e-17 0.0
6.673479925585854e-17 0.0
1.07416937352261e-16 0.0
-5.57448073367403e-17 0.0
1.8349778447102622e-16 0.0
-9.004628145224993e-17 0.0
6.759961806969392e-17 0.0
7.245317533352889e-17 0.0
-1.0192820930064127e-16 0.0
2.0530094597541527e-16 0.0
-7.197833108265913e-17 0.0
4.5615561131060255e-17 0.0
7.76473922197545e-17 0.0
-1.1104683503791115e-16 0.0
2.415652520677351e-16 0.0
5.126031747720722e-17 0.0
-1.804805758194866e-16 0.0
7.267585946032879e-17 0.0
-6.870030033263736e-17 0.0
0.0 0.009234165287258645
0.0 0.022109785930450248
0.0 0.04006285207152211
0.0 0.06509563926322222
-9.804242882984428e-17 0.1
-1.4613861089533768e-16 0.1
1.785611547176819e-15 0.1
-2.1202302337815113e-15 0.1
0.0 0.09234095951662909
0.0 0.08526779443702802
0.0 0.07873568783498387
0.0 0.072703253581695
0.0 0.0671322687899463
0.0 0.06198743331091953
0.0 0.05723615233795101
0.0 0.05284831692952273
0.0 0.04879612844994325
0.0 0.04505391065784214
0.0 0.04159795282712545
0.0 0.03840635724257124
0.0 0.0354589017182237
0.0 0.032736910873327404
0.0 0.03022313773603005
0.0 0.027901654838204806
0.0 0.025757753001959115
0.0 0.0237778483521135
0.0 0.021949395807803883
0.0 0.020260810255894383
0.0 0.018701392223653687
0.0 0.0172612615950356
0.0 0.015931293336680637
0.0 0.014703060372940394
0.0 0.01356878078290473
0.0 0.012521267482861146
0.0 0.01155388341352361
0.0 0.010660499143843274
0.0 0.009835453922831623
0.0 0.009073520329637862
0.0 0.008369870608788764
0.0 0.0077200463033811765
0.0 0.00711993001236023
0.0 0.006565719473521959
0.0 0.006053903138500475
0.0 0.005581237990646883
0.0 0.005144729232030317
0.0 0.004741611073219857
0.0 0.004369329253003719
0.0 0.004025577938763456
0.0 0.003708554938975238
0.0 0.003417365718435385
0.0 0.0031508480744755554
0.0 0.0029066437854283057
0.0 0.0026825423400822215
0.0 0.0024778191627204843
0.0 0.0022913484702889535
0.0 0.002121636753202006
0.0 0.001967267939633583
0.0 0.001827582641777078
0.0 0.0017012289769277869
0.0 0.001586923682466884
0.0 0.0014841329302633867
0.0 0.0013922174268844389
0.0 0.0013101799830908042
0.0 0.001237520088029949
0.0 0.0011734052562194894
0.0 0.001117458287340714
0.0 0.0010692499801657725
0.0 0.0010281906332264134
0.0 0.0009934992496254476
0.0 0.0009648234734746749
0.0 0.000941721411996748
0.0 0.0009229874155607597
0.0 0.0009089469835138715
0.0 0.0008974955527910714
0.0 0.0008893335598215092
0.0 0.0008837738968983272
0.0 0.0008800140760841875
0.0 0.0008776280105570876
0.0 0.0008757976396573231
0.0 0.0008745985034671187
0.0 0.0008735607854595613
0.0 0.0008726214514436873
0.0 0.0008715243249506503
0.0 0.0008703753107531393
0.0 0.0008690133805147035
0.0 0.0008674355081404344
0.0 0.0008656538139617186
0.0 0.0008635815151958669
0.0 0.0008615150680131051
0.0 0.000859428433058331
0.0 0.0008573113779075163
-9.171178965636408e-17 0.004927245132663446
6.436666320556013e-08 0.002773935164398563
2.2876108665168954e-05 0.0015472691935576063
4.4077228556540005e-05 0.0009640400530736739
1.8818433081345045e-06 0.00140486779687149
2.4581431659514733e-14 0.002259784942642662
6.491886626721419e-05 0.0006771065760199759
2.868050356011674e-09 0.0012867744049752502
1.4126207018547065e-05 0.0007818637591399127
5.998609662395373e-06 0.0007699748774652424
1.6776870492124585e-06 0.0007099931542268031
9.214434818125084e-08 0.0006767905382662842
2.0682884405783888e-16 0.014973736461407807
1.2571634431223455e-09 0.0006657296844371208
8.945659829486183e-06 0.0004681788619755875
9.649687788382375e-07 0.0004395749663738226
5.6531724686369426e-14 0.0011704180815811148
6.700891016829881e-05 0.0006842928273989776
2.067720871428038e-06 0.0003883057884713604
4.987492967031889e-06 0.00042136959519684466
4.116616443472243e-06 0.0004002998761150534
2.538452035150672e-06 0.00037740277431766716
9.192713722468507e-07 0.000378060190999071
9.625635847529603e-12 0.0006414990059231697
2.088430375667117e-07 0.00035248608565291775
2.394814846276781e-08 0.00039119378414475116
-2.673324667327707e-16 0.048473971154331504
1.5966486008086494e-05 0.0003583814803649857
-1.9913025263737036e-05 0.0002652731999924896
2.851203910463005e-09 0.00033400774869587677
1.635717543692575e-10 0.0003955732331117668