# vtk DataFile Version 3.0
Some data
ASCII
DATASET UNSTRUCTURED_GRID
POINTS 7930 float
0.0 0.0 0.0
0.0 10.0 0.0
10.0 10.0 0.0
10.0 0.0 0.0
0.5 0.0 0.0
0.0009999999999981016 0.0 0.0
0.001999999999996203 0.0 0.0
0.002999999999994305 0.0 0.0
0.003999999999992409 0.0 0.0
0.004999999999990531 0.0 0.0
0.005999999999988653 0.0 0.0
0.006999999999986775 0.0 0.0
0.007999999999984898 0.0 0.0
0.008999999999983018 0.0 0.0
0.009999999999981142 0.0 0.0
0.01099999999997926 0.0 0.0
0.01199999999997736 0.0 0.0
0.0129999999999754 0.0 0.0
0.01399999999997343 0.0 0.0
0.01499999999997147 0.0 0.0
0.01599999999996944 0.0 0.0
0.0169999999999673 0.0 0.0
0.01799999999996516 0.0 0.0
0.01899999999996302 0.0 0.0
0.01999999999996084 0.0 0.0
0.02099999999995862 0.0 0.0
0.02199999999995639 0.0 0.0
0.02299999999995417 0.0 0.0
0.02399999999995195 0.0 0.0
0.02499999999994972 0.0 0.0
0.0259999999999475 0.0 0.0
0.02699999999994527 0.0 0.0
0.02799999999994315 0.0 0.0
0.0289999999999411 0.0 0.0
0.02999999999993905 0.0 0.0
0.030999999999937 0.0 0.0
0.03199999999993521 0.0 0.0
0.0329999999999335 0.0 0.0
0.0339999999999318 0.0 0.0
0.03499999999993009 0.0 0.0
0.03599999999992853 0.0 0.0
0.036999999999927 0.0 0.0
0.03799999999992547 0.0 0.0
0.03899999999992394 0.0 0.0
0.03999999999992241 0.0 0.0
0.04099999999992088 0.0 0.0
0.04199999999991934 0.0 0.0
0.04299999999991782 0.0 0.0
0.04399999999991629 0.0 0.0
0.04499999999991475 0.0 0.0
0.04599999999991322 0.0 0.0
0.0469999999999117 0.0 0.0
0.04799999999991016 0.0 0.0
0.04899999999990863 0.0 0.0
0.0499999999999071 0.0 0.0
0.05099999999990557 0.0 0.0
0.05199999999990404 0.0 0.0
0.05299999999990251 0.0 0.0
0.05399999999990097 0.0 0.0
0.05499999999989943 0.0 0.0
0.05599999999989791 0.0 0.0
0.05699999999989638 0.0 0.0
0.05799999999989484 0.0 0.0
0.05899999999989317 0.0 0.0
0.05999999999989129 0.0 0.0
0.06099999999988941 0.0 0.0
0.06199999999988753 0.0 0.0
0.06299999999988531 0.0 0.0
0.06399999999988273 0.0 0.0
0.06499999999988015 0.0 0.0
0.06599999999987759 0.0 0.0
0.0669999999998748 0.0 0.0
0.06799999999987189 0.0 0.0
0.06899999999986897 0.0 0.0
0.06999999999986604 0.0 0.0
0.07099999999986313 0.0 0.0
0.0719999999998602 0.0 0.0
0.07299999999985729 0.0 0.0
0.07399999999985438 0.0 0.0
0.07499999999985145 0.0 0.0
0.07599999999984854 0.0 0.0
0.07699999999984562 0.0 0.0
0.0779999999998427 0.0 0.0
0.07899999999983978 0.0 0.0
0.07999999999983685 0.0 0.0
0.08099999999983394 0.0 0.0
0.08199999999983103 0.0 0.0
0.0829999999998281 0.0 0.0
0.08399999999982519 0.0 0.0
0.08499999999982226 0.0 0.0
0.08599999999981935 0.0 0.0
0.08699999999981643 0.0 0.0
0.0879999999998135 0.0 0.0
0.08899999999981059 0.0 0.0
0.08999999999980766 0.0 0.0
0.09099999999980475 0.0 0.0
0.09199999999980184 0.0 0.0
0.09299999999979891 0.0 0.0
0.093999999999796 0.0 0.0
0.09499999999979307 0.0 0.0
0.09599999999979016 0.0 0.0
0.09699999999978724 0.0 0.0
0.09799999999978432 0.0 0.0
0.0989999999997814 0.0 0.0
0.09999999999977847 0.0 0.0
0.1009999999997756 0.0 0.0
0.1019999999997726 0.0 0.0
0.1029999999997697 0.0 0.0
0.1039999999997668 0.0 0.0
0.1049999999997639 0.0 0.0
0.105999999999761 0.0 0.0
0.106999999999758 0.0 0.0
0.1079999999997551 0.0 0.0
0.1089999999997522 0.0 0.0
0.1099999999997493 0.0 0.0
0.1109999999997464 0.0 0.0
0.1119999999997434 0.0 0.0
0.1129999999997405 0.0 0.0
0.1139999999997376 0.0 0.0
0.1149999999997347 0.0 0.0
0.1159999999997318 0.0 0.0
0.1169999999997288 0.0 0.0
0.1179999999997259 0.0 0.0
0.118999999999723 0.0 0.0
0.1199999999997201 0.0 0.0
0.1209999999997172 0.0 0.0
0.1219999999997143 0.0 0.0
0.1229999999997113 0.0 0.0
0.1239999999997084 0.0 0.0
0.1249999999997055 0.0 0.0
0.1259999999997026 0.0 0.0
0.1269999999996997 0.0 0.0
0.1279999999996967 0.0 0.0
0.1289999999996938 0.0 0.0
0.1299999999996909 0.0 0.0
0.130999999999688 0.0 0.0
0.1319999999996851 0.0 0.0
0.1329999999996822 0.0 0.0
0.1339999999996792 0.0 0.0
0.1349999999996764 0.0 0.0
0.1359999999996734 0.0 0.0
0.1369999999996705 0.0 0.0
0.1379999999996676 0.0 0.0
0.1389999999996647 0.0 0.0
0.1399999999996618 0.0 0.0
0.1409999999996588 0.0 0.0
0.1419999999996559 0.0 0.0
0.142999999999653 0.0 0.0
0.1439999999996501 0.0 0.0
0.1449999999996472 0.0 0.0
0.1459999999996442 0.0 0.0
0.1469999999996414 0.0 0.0
0.1479999999996384 0.0 0.0
0.1489999999996355 0.0 0.0
0.1499999999996326 0.0 0.0
0.1509999999996297 0.0 0.0
0.1519999999996268 0.0 0.0
0.1529999999996239 0.0 0.0
0.1539999999996209 0.0 0.0
0.154999999999618 0.0 0.0
0.1559999999996151 0.0 0.0
0.1569999999996122 0.0 0.0
0.1579999999996093 0.0 0.0
0.1589999999996064 0.0 0.0
0.1599999999996035 0.0 0.0
0.1609999999996005 0.0 0.0
0.1619999999995976 0.0 0.0
0.1629999999995947 0.0 0.0
0.1639999999995918 0.0 0.0
0.1649999999995889 0.0 0.0
0.165999999999586 0.0 0.0
0.1669999999995831 0.0 0.0
0.1679999999995801 0.0 0.0
0.1689999999995772 0.0 0.0
0.1699999999995743 0.0 0.0
0.1709999999995714 0.0 0.0
0.1719999999995685 0.0 0.0
0.1729999999995655 0.0 0.0
0.1739999999995626 0.0 0.0
0.1749999999995597 0.0 0.0
0.1759999999995568 0.0 0.0
0.1769999999995539 0.0 0.0
0.177999999999551 0.0 0.0
0.178999999999548 0.0 0.0
0.1799999999995451 0.0 0.0
0.1809999999995422 0.0 0.0
0.1819999999995393 0.0 0.0
0.1829999999995364 0.0 0.0
0.1839999999995335 0.0 0.0
0.1849999999995305 0.0 0.0
0.1859999999995277 0.0 0.0
0.1869999999995247 0.0 0.0
0.1879999999995218 0.0 0.0
0.1889999999995189 0.0 0.0
0.189999999999516 0.0 0.0
0.1909999999995131 0.0 0.0
0.1919999999995101 0.0 0.0
0.1929999999995072 0.0 0.0
0.1939999999995043 0.0 0.0
0.1949999999995014 0.0 0.0
0.1959999999994985 0.0 0.0
0.1969999999994956 0.0 0.0
0.1979999999994927 0.0 0.0
0.1989999999994897 0.0 0.0
0.1999999999994868 0.0 0.0
0.2009999999994839 0.0 0.0
0.201999999999481 0.0 0.0
0.2029999999994781 0.0 0.0
0.2039999999994752 0.0 0.0
0.2049999999994722 0.0 0.0
0.2059999999994693 0.0 0.0
0.2069999999994664 0.0 0.0
0.2079999999994635 0.0 0.0
0.2089999999994606 0.0 0.0
0.2099999999994577 0.0 0.0
0.2109999999994548 0.0 0.0
0.2119999999994518 0.0 0.0
0.2129999999994489 0.0 0.0
0.213999999999446 0.0 0.0
0.2149999999994431 0.0 0.0
0.2159999999994402 0.0 0.0
0.2169999999994373 0.0 0.0
0.2179999999994343 0.0 0.0
0.2189999999994314 0.0 0.0
0.2199999999994285 0.0 0.0
0.2209999999994256 0.0 0.0
0.2219999999994227 0.0 0.0
0.2229999999994198 0.0 0.0
0.2239999999994168 0.0 0.0
0.2249999999994139 0.0 0.0
0.225999999999411 0.0 0.0
0.2269999999994081 0.0 0.0
0.2279999999994052 0.0 0.0
0.2289999999994023 0.0 0.0
0.2299999999993994 0.0 0.0
0.2309999999993964 0.0 0.0
0.2319999999993935 0.0 0.0
0.2329999999993906 0.0 0.0
0.2339999999993877 0.0 0.0
0.2349999999993848 0.0 0.0
0.2359999999993818 0.0 0.0
0.236999999999379 0.0 0.0
0.237999999999376 0.0 0.0
0.2389999999993731 0.0 0.0
0.2399999999993702 0.0 0.0
0.2409999999993673 0.0 0.0
0.2419999999993644 0.0 0.0
0.2429999999993615 0.0 0.0
0.2439999999993585 0.0 0.0
0.2449999999993556 0.0 0.0
0.2459999999993527 0.0 0.0
0.246999999999351 0.0 0.0
0.2479999999993495 0.0 0.0
0.248999999999348 0.0 0.0
0.2499999999993464 0.0 0.0
0.2509999999993477 0.0 0.0
0.2519999999993489 0.0 0.0
0.2529999999993502 0.0 0.0
0.2539999999993516 0.0 0.0
0.2549999999993542 0.0 0.0
0.2559999999993569 0.0 0.0
0.2569999999993595 0.0 0.0
0.2579999999993621 0.0 0.0
0.2589999999993647 0.0 0.0
0.2599999999993673 0.0 0.0
0.26099999999937 0.0 0.0
0.2619999999993726 0.0 0.0
0.2629999999993753 0.0 0.0
0.2639999999993779 0.0 0.0
0.2649999999993806 0.0 0.0
0.2659999999993832 0.0 0.0
0.2669999999993858 0.0 0.0
0.2679999999993884 0.0 0.0
0.2689999999993911 0.0 0.0
0.2699999999993937 0.0 0.0
0.2709999999993963 0.0 0.0
0.271999999999399 0.0 0.0
0.2729999999994017 0.0 0.0
0.2739999999994043 0.0 0.0
0.2749999999994069 0.0 0.0
0.2759999999994096 0.0 0.0
0.2769999999994122 0.0 0.0
0.2779999999994148 0.0 0.0
0.2789999999994174 0.0 0.0
0.2799999999994201 0.0 0.0
0.2809999999994228 0.0 0.0
0.2819999999994254 0.0 0.0
0.282999999999428 0.0 0.0
0.2839999999994306 0.0 0.0
0.2849999999994333 0.0 0.0
0.2859999999994359 0.0 0.0
0.2869999999994385 0.0 0.0
0.2879999999994411 0.0 0.0
0.2889999999994439 0.0 0.0
0.2899999999994465 0.0 0.0
0.2909999999994491 0.0 0.0
0.2919999999994517 0.0 0.0
0.2929999999994544 0.0 0.0
0.293999999999457 0.0 0.0
0.2949999999994596 0.0 0.0
0.2959999999994622 0.0 0.0
0.2969999999994649 0.0 0.0
0.2979999999994676 0.0 0.0
0.2989999999994702 0.0 0.0
0.2999999999994728 0.0 0.0
0.3009999999994754 0.0 0.0
0.3019999999994781 0.0 0.0
0.3029999999994807 0.0 0.0
0.3039999999994834 0.0 0.0
0.304999999999486 0.0 0.0
0.3059999999994886 0.0 0.0
0.3069999999994913 0.0 0.0
0.3079999999994939 0.0 0.0
0.3089999999994965 0.0 0.0
0.3099999999994992 0.0 0.0
0.3109999999995018 0.0 0.0
0.3119999999995045 0.0 0.0
0.3129999999995071 0.0 0.0
0.3139999999995097 0.0 0.0
0.3149999999995123 0.0 0.0
0.315999999999515 0.0 0.0
0.3169999999995176 0.0 0.0
0.3179999999995203 0.0 0.0
0.3189999999995229 0.0 0.0
0.3199999999995256 0.0 0.0
0.3209999999995282 0.0 0.0
0.3219999999995308 0.0 0.0
0.3229999999995334 0.0 0.0
0.323999999999536 0.0 0.0
0.3249999999995387 0.0 0.0
0.3259999999995414 0.0 0.0
0.326999999999544 0.0 0.0
0.3279999999995466 0.0 0.0
0.3289999999995493 0.0 0.0
0.3299999999995519 0.0 0.0
0.3309999999995545 0.0 0.0
0.3319999999995571 0.0 0.0
0.3329999999995598 0.0 0.0
0.3339999999995625 0.0 0.0
0.3349999999995651 0.0 0.0
0.3359999999995677 0.0 0.0
0.3369999999995703 0.0 0.0
0.337999999999573 0.0 0.0
0.3389999999995756 0.0 0.0
0.3399999999995783 0.0 0.0
0.3409999999995809 0.0 0.0
0.3419999999995835 0.0 0.0
0.3429999999995862 0.0 0.0
0.3439999999995888 0.0 0.0
0.3449999999995914 0.0 0.0
0.345999999999594 0.0 0.0
0.3469999999995967 0.0 0.0
0.3479999999995994 0.0 0.0
0.348999999999602 0.0 0.0
0.3499999999996046 0.0 0.0
0.3509999999996072 0.0 0.0
0.3519999999996099 0.0 0.0
0.3529999999996125 0.0 0.0
0.3539999999996151 0.0 0.0
0.3549999999996178 0.0 0.0
0.3559999999996205 0.0 0.0
0.3569999999996231 0.0 0.0
0.3579999999996257 0.0 0.0
0.3589999999996283 0.0 0.0
0.359999999999631 0.0 0.0
0.3609999999996336 0.0 0.0
0.3619999999996362 0.0 0.0
[...]
POINT_DATA 7930
SCALARS Disp float 2
LOOKUP_TABLE default
0.0 0.001949919791797901
0.0 0.1
0.0 0.1
0.0 0.0
6.464376899148963e-06 0.0
-6.952538576293288e-06 0.0019498678805167078
-1.387015291781227e-05 0.0019494376718504284
-2.0709721117817773e-05 0.0019485528284584133
-2.7622427353922392e-05 0.0019477782293346436
-3.460636895242449e-05 0.0019469582762356196
-4.13998336039831e-05 0.0019451258689575316
-4.784902563992077e-05 0.0019431255614277313
-5.4604993866409684e-05 0.0019421042635197061
-6.178480467391911e-05 0.0019407432680862535
-6.877384620954256e-05 0.0019378207609442146
-7.501342548061006e-05 0.0019342102928099065
-8.14706303302444e-05 0.0019326025247606636
-8.89689480427445e-05 0.0019311844849353697
-9.613278045544343e-05 0.0019272927135428623
-0.00010238617225060686 0.0019222867797063594
-0.00010881010466137165 0.0019194270814531004
-0.00011620856533223095 0.0019172639644740451
-0.00012363090449017894 0.0019124701401515831
-0.00012976575830506368 0.0019063458922725066
-0.0001360132511912101 0.0019026780857100863
-0.00014346969321601299 0.001899984915956551
-0.00015100153154268053 0.0018939837439568424
-0.00015711963167936205 0.001886323689860972
-0.00016309569799698143 0.0018816901232994198
-0.00017064201073982871 0.0018788252860299254
-0.00017837414001564784 0.0018719088558515342
-0.00018462191597118493 0.0018628522797428995
-0.00019052597255710772 0.001856897028659721
-0.00019791028983660557 0.0018529531961012547
-0.00020576167105262547 0.0018453887892205117
-0.00021210802088318396 0.0018350164540733643
-0.00021799701134202882 0.0018277495450726236
-0.00022534762189432348 0.001822930416181268
-0.0002328510864065829 0.0018145809356230993
-0.00023932690013781722 0.0018028317624151355
-0.00024497091473630494 0.0017942994356380478
-0.00025221201121361985 0.0017888494114581567
-0.0002603450781085723 0.0017797437034723362
-0.0002668654798776266 0.001766574934518211
-0.00027263639815472657 0.0017565664128335126
-0.0002800053855545213 0.001749887638836049
-0.00028774232720318096 0.0017394399733244171
-0.00029444516412866785 0.0017247984733615104
-0.0002998990518586316 0.0017131563781541685
-0.000306922036451783 0.0017055088443918745
-0.00031519903928871497 0.0016943075794370475
-0.00032179614952193976 0.0016782329768255436
-0.00032759337600181475 0.001664631930264807
-0.00033448208831756175 0.0016552128114835545
-0.00034241092247024306 0.0016428563900689583
-0.00034926687018346173 0.0016252957330568246
-0.0003547597927932566 0.0016098573539824973
-0.00036130761571915806 0.0015995821418947668
-0.00036949570271276066 0.0015858047497972186
-0.0003764034015838029 0.0015663646444541834
-0.0003817019874629111 0.0015491822282426592
-0.00038826907098289204 0.0015372879275346938
-0.0003966844487719672 0.001522618651547928
-0.0004040796568660688 0.0015015245273349834
-0.00040956774994381007 0.0014816185647915938
-0.0004159150721802471 0.0014670419682927603
-0.00042361952818031315 0.0014505779606078478
-0.0004308074895421568 0.0014275572094869281
-0.00043626116312905276 0.0014053621147343382
-0.0004424891220450719 0.0013889166315382488
-0.00045052912446467654 0.0013707149582911288
-0.00045804349996748326 0.0013453653990930013
-0.00046358515651212116 0.0013202512270928768
-0.0004697084339602591 0.0013009861414083586
-0.00047774661294291856 0.001280195118185887
-0.0004855179512436433 0.0012517664782225153
-0.0004912712968532161 0.0012228650150817536
-0.0004972299591616264 0.0012000914836143915
-0.0005051700136445201 0.0011761525646739142
-0.0005132310315307457 0.0011440333814041405
-0.0005186874651833154 0.0011106394739574402
-0.0005244235905668621 0.0010833181594815955
-0.000532311601924964 0.001055104317678584
-0.0005405099418847691 0.0010180329297471056
-0.0005459725526125499 0.0009786647017572632
-0.0005514090184910492 0.0009452274698366639
-0.0005595351638130985 0.0009105494805883623
-0.000568036864454581 0.0008659564732379772
-0.0005734355240856595 0.0008175564789689657
-0.0005786385415553372 0.000774000584377181
-0.0005861070318377813 0.0007284143720231496
-0.0005936335285855025 0.0006706899376642884
-0.000599793220654806 0.000605475953684193
-0.0006055876389812952 0.0005396854963367837
-0.0006115566811027535 0.0004658450083380392
-0.0006161548198690499 0.00036744061426265763
-0.0006097009270123251 0.00023396676400067176
-0.0005799199482081624 0.0
-0.0005334136267077143 0.0
-0.0005031249129783499 0.0
-0.00047988106281824207 0.0
-0.00045935327728028447 0.0
-0.00044267487063051923 0.0
-0.0004278576465678737 0.0
-0.00041468654623740854 0.0
-0.0004028510539133761 0.0
-0.0003920490907215401 0.0
-0.0003821013810462731 0.0
-0.00037289358061249386 0.0
-0.000364269788937176 0.0
-0.00035605347757290185 0.0
-0.0003483768003205614 0.0
-0.00034125005263087847 0.0
-0.00033423794522008057 0.0
-0.0003276725821578039 0.0
-0.0003214429573457358 0.0
-0.00031545020029784374 0.0
-0.0003097280947576952 0.0
-0.00030424726017374524 0.0
-0.00029895392570336023 0.0
-0.00029387119182733957 0.0
-0.0002889912517796155 0.0
-0.0002842890740453801 0.0
-0.00027979535323419276 0.0
-0.0002753435562202762 0.0
-0.0002711027715873222 0.0
-0.0002669734531336483 0.0
-0.0002629919273424989 0.0
-0.0002590903778074467 0.0
-0.00025532199183438966 0.0
-0.0002516534293046793 0.0
-0.0002480811714968299 0.0
-0.0002446011112963185 0.0
-0.0002412145398198588 0.0
-0.00023791404672046586 0.0
-0.00023469271395387665 0.0
-0.00023154647070522193 0.0
-0.00022848718982132265 0.0
-0.00022551449802909524 0.0
-0.00022257403953185442 0.0
-0.0002197223395809112 0.0
-0.00021692554521926804 0.0
-0.0002141930418687752 0.0
-0.00021151615375392097 0.0
-0.0002088955101810093 0.0
-0.0002063322518017406 0.0
-0.00020382287295672488 0.0
-0.00020136365830048035 0.0
-0.0001989463963237889 0.0
-0.0001965778276285351 0.0
-0.00019425480853986352 0.0
-0.00019197204954266432 0.0
-0.0001897333970124853 0.0
-0.00018753427251848464 0.0
-0.00018537040462310176 0.0
-0.00018324433538474645 0.0
-0.0001811555069676699 0.0
-0.00017909993947364835 0.0
-0.00017707812378359029 0.0
-0.00017509389984436794 0.0
-0.0001731492776001471 0.0
-0.0001712232899482403 0.0
-0.00016934430752888477 0.0
-0.0001674927923412101 0.0
-0.00016567258141287678 0.0
-0.00016388833280757802 0.0
-0.00016211748073077033 0.0
-0.00016038794011904103 0.0
-0.00015868445334654772 0.0
-0.00015700600948546226 0.0
-0.00015535436374721496 0.0
-0.00015372692011208234 0.0
-0.00015212236374687808 0.0
-0.00015053928452375115 0.0
-0.00014897840273868837 0.0
-0.00014743803657838808 0.0
-0.00014591571031594386 0.0
-0.00014441585442573042 0.0
-0.00014293788288354716 0.0
-0.00014147820894920985 0.0
-0.0001400369727577848 0.0
-0.0001386161188384148 0.0
-0.00013721594055962323 0.0
-0.00013583176483888945 0.0
-0.0001344662529865361 0.0
-0.00013312032355961308 0.0
-0.0001317911901675049 0.0
-0.00013047883580531407 0.0
-0.00012918371123986345 0.0
-0.0001279067831052991 0.0
-0.00012664426345391748 0.0
-0.00012539766363854073 0.0
-0.00012416619145601634 0.0
-0.0001229489249937748 0.0
-0.00012174668764890685 0.0
-0.00012055937785943238 0.0
-0.00011938429110958436 0.0
-0.00011822257907424389 0.0
-0.00011707314624548525 0.0
-0.00011593641699497898 0.0
-0.00011481380427660819 0.0
-0.00011370283449627837 0.0
-0.00011260305324616851 0.0
-0.00011151692324625444 0.0
-0.00011044156650530165 0.0
-0.0001093784692580876 0.0
-0.00010832836757216198 0.0
-0.00010729031703326428 0.0
-0.00010626356466590553 0.0
-0.00010525081528716674 0.0
-0.00010424601388875064 0.0
-0.00010325298120580718 0.0
-0.00010227141193623196 0.0
-0.0001013020643308301 0.0
-0.0001003429735483489 0.0
-9.939445862546854e-05 0.0
-9.845659559642219e-05 0.0
-9.75279428062939e-05 0.0
-9.660882801873816e-05 0.0
-9.570235869006127e-05 0.0
-9.47996682025752e-05 0.0
-9.390821940599029e-05 0.0
-9.302602435346343e-05 0.0
-9.215095123352286e-05 0.0
-9.128423786073721e-05 0.0
-9.042574735605682e-05 0.0
-8.957491579394978e-05 0.0
-8.87314216591406e-05 0.0
-8.789570632045396e-05 0.0
-8.706754712510797e-05 0.0
-8.624638715240482e-05 0.0
-8.543311180259287e-05 0.0
-8.462684121010271e-05 0.0
-8.382762836362355e-05 0.0
-8.30359969039191e-05 0.0
-8.225085038069837e-05 0.0
-8.14720840466858e-05 0.0
-8.070072808095749e-05 0.0
-7.993641607237384e-05 0.0
-7.91780578846796e-05 0.0
-7.842730648367084e-05 0.0
-7.768288608880135e-05 0.0
-7.69455053192968e-05 0.0
-7.621476788441049e-05 0.0
-7.549038894020584e-05 0.0
-7.4772233670144e-05 0.0
-7.406035851695108e-05 0.0
-7.335508523267173e-05 0.0
-7.265554984556482e-05 0.0
-7.196232577420819e-05 0.0
-7.127609510414e-05 0.0
-7.059505667096882e-05 0.0
-6.991991058767073e-05 0.0
-6.92513317155994e-05 0.0
-6.858841354051544e-05 0.0
-6.793130457579023e-05 0.0
-6.727983820776104e-05 0.0
-6.663350791982775e-05 0.0
-6.599266820205372e-05 0.0
-6.535753029799457e-05 0.0
-6.472718537292424e-05 0.0
-6.410195496124006e-05 0.0
-6.348162940550224e-05 0.0
-6.286630005332463e-05 0.0
-6.225583793140328e-05 0.0
-6.1650054629552e-05 0.0
-6.104867923462987e-05 0.0
-6.045156963149075e-05 0.0
-5.985905501890228e-05 0.0
-5.927073397472693e-05 0.0
-5.8686952157593635e-05 0.0
-5.810765524258202e-05 0.0
-5.753271728891552e-05 0.0
-5.6960660929538424e-05 0.0
-5.639514116248946e-05 0.0
-5.58321915783429e-05 0.0
-5.527524572220977e-05 0.0
-5.4721127222251e-05 0.0
-5.417181704918633e-05 0.0
-5.362711123984061e-05 0.0
-5.308712017023263e-05 0.0
-5.255181140088109e-05 0.0
-5.2020984986196725e-05 0.0
-5.1494911472378996e-05 0.0
-5.097358205562145e-05 0.0
-5.045678768792355e-05 0.0
-4.994442308269979e-05 0.0
-4.94366464898025e-05 0.0
-4.893337022417107e-05 0.0
-4.8434200416171896e-05 0.0
-4.7939291914413875e-05 0.0
-4.74486785098828e-05 0.0
-4.6962140336266366e-05 0.0
-4.647965786133243e-05 0.0
-4.599910929018952e-05 0.0
-4.5523271514944084e-05 0.0
-4.505075217903177e-05 0.0
-4.4581424422544146e-05 0.0
-4.411606990612977e-05 0.0
-4.3652192847119866e-05 0.0
-4.3191432570205486e-05 0.0
-4.27336126015152e-05 0.0
-4.2278603544831473e-05 0.0
-4.182598375726366e-05 0.0
-4.137586667541331e-05 0.0
-4.0928156722461525e-05 0.0
-4.048309854262272e-05 0.0
-4.004048212317985e-05 0.0
-3.96003557085167e-05 0.0
-3.9162891651298174e-05 0.0
-3.872821985675613e-05 0.0
-3.8296375513894374e-05 0.0
-3.786591998530189e-05 0.0
-3.7439077647430015e-05 0.0
-3.701527358812997e-05 0.0
-3.6594578523073125e-05 0.0
-3.6177727860820467e-05 0.0
-3.576241976427249e-05 0.0
-3.535047044296194e-05 0.0
-3.4941911192483773e-05 0.0
-3.453667090475691e-05 0.0
-3.413464021324217e-05 0.0
-3.373628941236085e-05 0.0
-3.334112353229229e-05 0.0
-3.294919080178277e-05 0.0
-3.256039245279837e-05 0.0
-3.217479820847528e-05 0.0
-3.1792266460809116e-05 0.0
-3.141258724655294e-05 0.0
-3.1035956599419384e-05 0.0
-3.066243672250445e-05 0.0
-3.029141823708107e-05 0.0
-2.9922959327378298e-05 0.0
-2.9557252799410432e-05 0.0
-2.919399168350162e-05 0.0
-2.8832936325993726e-05 0.0
-2.84742346791634e-05 0.0
-2.811756233362301e-05 0.0
-2.7763103664057822e-05 0.0
-2.7410637541719914e-05 0.0
-2.7060074802180873e-05 0.0
-2.6711345309768486e-05 0.0
-2.636449205509101e-05 0.0
-2.6019645514713628e-05 0.0
-2.5676695890612803e-05 0.0
-2.533554577867027e-05 0.0
-2.4996208252821704e-05 0.0
-2.4658870393994814e-05 0.0
-2.4323510285574e-05 0.0
-2.399003195488441e-05 0.0
-2.3658744791491843e-05 0.0
-2.3329638227246446e-05 0.0
-2.3002734821306407e-05 0.0
-2.2677978185337828e-05 0.0
-2.2355571386848777e-05 0.0
-2.203559995631353e-05 0.0
-2.1717879759364075e-05 0.0
-2.140276514291525e-05 0.0
-2.109006899835865e-05 0.0
-2.0779859656802966e-05 0.0
-2.0472265339152712e-05 0.0
-2.016718334456239e-05 0.0
-1.9864735871620934e-05 0.0
-1.9564792724961274e-05 0.0
-1.926728343195235e-05 0.0
-1.897236002949091e-05 0.0
-1.8679925657063822e-05 0.0
-1.8389906796353e-05 0.0
-1.8102277483492815e-05 0.0
-1.7816931728858854e-05 0.0
-1.753378202351659e-05 0.0
-1.7252847584698164e-05 0.0
-1.697404464024539e-05 0.0
-1.6697328331610177e-05 0.0
-1.64218566586988e-05 0.0
-1.614858743593425e-05 0.0
-1.587712093009271e-05 0.0
-1.5607313719725282e-05 0.0
-1.5339104669937577e-05 0.0
-1.5072438146036348e-05 0.0
-1.4807230887384169e-05 0.0
-1.4543383951211671e-05 0.0
-1.428096077788058e-05 0.0
-1.4019795959119036e-05 0.0
-1.375996277813704e-05 0.0
-1.3501457296847148e-05 0.0
-1.3244239215128257e-05 0.0
-1.2988331260408545e-05 0.0
-1.273380980802609e-05 0.0
-1.248045952072728e-05 0.0
-1.2228505416870843e-05 0.0
-1.197792371862386e-05 0.0
-1.1728785721909734e-05 0.0
-1.1481071742589362e-05 0.0
-1.123487085604343e-05 0.0
-1.0990284736443594e-05 0.0
-1.0747241848675542e-05 0.0
-1.0505866261284962e-05 0.0
-1.026623333023353e-05 0.0
-1.0028335525179758e-05 0.0
-9.792258906611654e-06 0.0
-9.558044357924573e-06 0.0
-9.325696657771126e-06 0.0
-9.095234195002873e-06 0.0
-8.866867955596497e-06 0.0
-8.640388191957702e-06 0.0
-8.415868682295565e-06 0.0
-8.193403997043705e-06 0.0
-7.973007752268379e-06 0.0
-7.7545484110744e-06 0.0
-7.538048490295606e-06 0.0
-7.323535012559262e-06 0.0
-7.111018601160662e-06 0.0
-6.90033163779247e-06 0.0
-6.691519548896061e-06 0.0
-6.484454173326835e-06 0.0
-6.279088742513943e-06 0.0
-6.075560627841258e-06 0.0
-5.873786977838382e-06 0.0
-5.67360783736725e-06 0.0
-5.475064774257785e-06 0.0
-5.278056386669501e-06 0.0
-5.082474310762812e-06 0.0
-4.888346699990035e-06 0.0
-4.6955256604474745e-06 0.0
-4.504077659107098e-06 0.0
-4.313973899165382e-06 0.0
-4.125103136122106e-06 0.0
-3.937390255474008e-06 0.0
-3.750944930093779e-06 0.0
-3.5657119873029345e-06 0.0
-3.3815959601778186e-06 0.0
-3.198602536528727e-06 0.0
-3.016687932977873e-06 0.0
-2.8359240555088046e-06 0.0
-2.656296766355184e-06 0.0
-2.4777300474124604e-06 0.0
-2.300306304727561e-06 0.0
-2.124152563953825e-06 0.0
-1.9489439921185757e-06 0.0
-1.774969907180023e-06 0.0
-1.602214477452785e-06 0.0
-1.430726830186289e-06 0.0
-1.2604356542790349e-06 0.0
-1.0913333068964384e-06 0.0
-9.235805498531609e-07 0.0
-7.571656151121027e-07 0.0
-5.921387696200103e-07 0.0
-4.285612938541024e-07 0.0
-2.661857454421281e-07 0.0
-1.0524454792575283e-07 0.0
5.4230764782940725e-08 0.0
2.1225817516523278e-07 0.0
3.688826912870865e-07 0.0
5.239847996541972e-07 0.0
6.776363767886042e-07 0.0
8.298582703037318e-07 0.0
9.806053663482559e-07 0.0
1.1299081506274467e-06 0.0
1.2777150698113212e-06 0.0
1.4240072432414583e-06 0.0
1.5688459415194832e-06 0.0
1.7123490586532356e-06 0.0
1.8543318262664416e-06 0.0
1.9948854549131033e-06 0.0
2.13395356015622e-06 0.0
2.2716642091848025e-06 0.0
2.4080216358009233e-06 0.0
2.543110572970587e-06 0.0
2.6768066259897687e-06 0.0
2.8090420150203256e-06 0.0
2.9399533903165298e-06 0.0
3.069676414473212e-06 0.0
3.198082930606207e-06 0.0
3.325253134601214e-06 0.0
3.4511213687462702e-06 0.0
3.5757252557814486e-06 0.0
3.698997191164188e-06 0.0
3.820955537544039e-06 0.0
3.941679328436177e-06 0.0
4.0609952977028315e-06 0.0
4.178975016922586e-06 0.0
4.295574304818614e-06 0.0
4.410845957165589e-06 0.0
4.524769368156035e-06 0.0
4.637290144824581e-06 0.0
4.748320462840322e-06 0.0
4.85779503196489e-06 0.0
4.9659490059321165e-06 0.0
5.07248987706008e-06 0.0
5.177432967626555e-06 0.0
5.28079952841987e-06 0.0
5.3823636555140434e-06 0.0
5.482466904047536e-06 0.0
5.580891206200757e-06 0.0
5.67753196924247e-06 0.0
5.772370196117387e-06 0.0
5.865544675274749e-06 0.0
5.956819685123884e-06 0.0
6.046211306954372e-06 0.0
6.1336247822829805e-06 0.0
6.219195911818588e-06 0.0
6.303018315008602e-06 0.0
6.3846760276709556e-06 0.0
6.544944942424468e-06 0.0
6.630091619866187e-06 0.0
6.719917861268676e-06 0.0
6.8143049742012726e-06 0.0
6.913013027557039e-06 0.0
7.015881544715092e-06 0.0
7.122525893772017e-06 0.0
7.232389313760151e-06 0.0
7.345003542796498e-06 0.0
7.459709995531874e-06 0.0
7.575732452541407e-06 0.0
7.692827042296513e-06 0.0
7.809651279716729e-06 0.0
7.926489765945109e-06 0.0
8.042437871916489e-06 0.0
8.15652921460499e-06 0.0
8.266755648861494e-06 0.0
8.372862438029257e-06 0.0
8.470539730052106e-06 0.0
8.557683149516926e-06 0.0
8.626531416832214e-06 0.0
8.6673610480009e-06 0.0
8.666927468596259e-06 0.0
8.626337791032547e-06 0.0
8.532835319297794e-06 0.0
8.393732872177398e-06 0.0
8.211420694726508e-06 0.0
7.991433662813142e-06 0.0
7.727459325767782e-06 0.0
7.395752972716745e-06 0.0
6.96720115813377e-06 0.0
6.431227706423185e-06 0.0
5.81056483151823e-06 0.0
5.152636370419013e-06 0.0
4.478658126674044e-06 0.0
3.7517866053642058e-06 0.0
2.913480218755214e-06 0.0
1.981035328614893e-06 0.0
1.118668338202815e-06 0.0
4.997786880982816e-07 0.0
1.6384473328061154e-07 0.0
3.461821929566165e-08 0.0
5.204688524590841e-09 0.0
2.166512666995237e-10 0.0
-2.304211916242293e-12 0.0
-6.935745175553536e-13 0.0
2.9138770433703555e-13 0.0
1.3607706657933712e-13 0.0
2.36037413885138e-15 0.0
-1.0668368169624233e-14 0.0
-2.4216509343864473e-15 0.0
-8.897513948667573e-16 0.0
-1.4043667186669175e-15 0.0
-8.918951064175416e-17 0.0
-1.7473568634282803e-15 0.0
-1.0536596956504993e-15 0.0
-4.921310827354609e-16 0.0
-5.6134073282138e-17 0.0
2.5522287596589737e-16 0.0
4.64632312539834e-16 0.0
-4.2531738323110114e-17 0.0
1.789613603534973e-16 0.0
7.899397103583433e-16 0.0
-5.265723510810528e-17 0.0
-2.2549322622070403e-16 0.0
-6.093988215292782e-16 0.0
-3.859482106360091e-16 0.0
3.566793692574939e-16 0.0
-1.0458609135014562e-16 0.0
-3.876170553929209e-16 0.0
6.689711398722199e-16 0.0
8.206509665673948e-16 0.0
-1.928873748933206e-15 0.0
6.448347005800814e-16 0.0
2.119589068066051e-15 0.0
-2.1347369255834378e-15 0.0
1.5468682705253717e-16 0.0
1.1042582117649032e-15 0.0
-1.6441359862428388e-15 0.0
0.0 0.009234165287259863
0.0 0.022109785930462842
0.0 0.04006285207145427
0.0 0.06509563926310145
-2.3314538898697825e-15 0.1
-3.208889683827693e-15 0.1
3.658824567562044e-14 0.1
-3.80277272915071e-14 0.1
0.0 0.09234095951658756
0.0 0.08526779443703544
0.0 0.07873568783499152
0.0 0.07270325358165584
0.0 0.06713226878991459
0.0 0.06198743331091851
0.0 0.057236152337956814
0.0 0.05284831692952378
0.0 0.0487961284499434
0.0 0.045053910657850874
0.0 0.04159795282712494
0.0 0.03840635724257382
0.0 0.03545890171822749
0.0 0.0327369108733358
0.0 0.03022313773603509
0.0 0.027901654838207824
0.0 0.025757753001965686
0.0 0.023777848352106744
0.0 0.021949395807906318
0.0 0.02026081025554333
0.0 0.01870139222390314
0.0 0.017261261593085803
0.0 0.01593129333762431
0.0 0.014703060334558917
0.0 0.013568780763246122
0.0 0.012521266188000682
0.0 0.011553891086246089
0.0 0.010660454069832534
0.0 0.0098355708564931
0.0 0.009073119365433145
0.0 0.008370748846805321
0.0 0.007727174703899703
0.0 0.007136882620246062
0.0 0.006595557272080668
0.0 0.006099243616423904
0.0 0.005645588719674405
0.0 0.0052315808682012405
0.0 0.004855298686360484
0.0 0.004513597514433749
0.0 0.004203212337326389
0.0 0.00392188128078231
0.0 0.003667174806997969
0.0 0.0034379260495252507
0.0 0.003231836561925948
0.0 0.003048229808138626
0.0 0.002884548980015414
0.0 0.002739495237231957
0.0 0.002612488900767053
0.0 0.0025011749976629333
0.0 0.0024047367900945846
0.0 0.0023231443863950736
0.0 0.0022538383219332055
0.0 0.0021958722009237045
0.0 0.0021486659322320673
0.0 0.002109731019941414
0.0 0.002078943729270193
0.0 0.0020549082668321317
0.0 0.002036701121451434
0.0 0.002023039846652911
0.0 0.0020131893370157446
0.0 0.0020060853364377846
0.0 0.002001168420575697
0.0 0.0019980065287827126
0.0 0.0019951172472883446
0.0 0.001993681906935389
0.0 0.0019916940642299642
0.0 0.001990164455408479
0.0 0.001988606979605261
0.0 0.0019869262791933546
0.0 0.001985111742242643
0.0 0.001982955323920243
0.0 0.001980673227622273
0.0 0.0019781896286874185
0.0 0.001975618589275111
0.0 0.00197292804323393
0.0 0.001970273937285247
0.0 0.0019676037945483933
0.0 0.0019649594466220784
0.0 0.0019623498306195093
0.0 0.0019596913335681184
0.0 0.0019571088403998495
0.0 0.001954635527600274
0.0 0.0019522821161220994
8.859026360095704e-06 0.004934497083110519
7.632280792884051e-05 0.002829657168773571
0.0001245653948525878 0.0017787115736660425
0.00016525903775711418 0.0015011693602210842
2.9981585916186774e-05 0.0014218873344433375
2.0496896132647514e-05 0.002260222100337236