# vtk DataFile Version 3.0
Some data
ASCII
DATASET UNSTRUCTURED_GRID
POINTS 7930 float
0.0 0.0 0.0
0.0 10.0 0.0
10.0 10.0 0.0
10.0 0.0 0.0
0.5 0.0 0.0
0.0009999999999981016 0.0 0.0
0.001999999999996203 0.0 0.0
0.002999999999994305 0.0 0.0
0.003999999999992409 0.0 0.0
0.004999999999990531 0.0 0.0
0.005999999999988653 0.0 0.0
0.006999999999986775 0.0 0.0
0.007999999999984898 0.0 0.0
0.008999999999983018 0.0 0.0
0.009999999999981142 0.0 0.0
0.01099999999997926 0.0 0.0
0.01199999999997736 0.0 0.0
0.0129999999999754 0.0 0.0
0.01399999999997343 0.0 0.0
0.01499999999997147 0.0 0.0
0.01599999999996944 0.0 0.0
0.0169999999999673 0.0 0.0
0.01799999999996516 0.0 0.0
0.01899999999996302 0.0 0.0
0.01999999999996084 0.0 0.0
0.02099999999995862 0.0 0.0
0.02199999999995639 0.0 0.0
0.02299999999995417 0.0 0.0
0.02399999999995195 0.0 0.0
0.02499999999994972 0.0 0.0
0.0259999999999475 0.0 0.0
0.02699999999994527 0.0 0.0
0.02799999999994315 0.0 0.0
0.0289999999999411 0.0 0.0
0.02999999999993905 0.0 0.0
0.030999999999937 0.0 0.0
0.03199999999993521 0.0 0.0
0.0329999999999335 0.0 0.0
0.0339999999999318 0.0 0.0
0.03499999999993009 0.0 0.0
0.03599999999992853 0.0 0.0
0.036999999999927 0.0 0.0
0.03799999999992547 0.0 0.0
0.03899999999992394 0.0 0.0
0.03999999999992241 0.0 0.0
0.04099999999992088 0.0 0.0
0.04199999999991934 0.0 0.0
0.04299999999991782 0.0 0.0
0.04399999999991629 0.0 0.0
0.04499999999991475 0.0 0.0
0.04599999999991322 0.0 0.0
0.0469999999999117 0.0 0.0
0.04799999999991016 0.0 0.0
0.04899999999990863 0.0 0.0
0.0499999999999071 0.0 0.0
0.05099999999990557 0.0 0.0
0.05199999999990404 0.0 0.0
0.05299999999990251 0.0 0.0
0.05399999999990097 0.0 0.0
0.05499999999989943 0.0 0.0
0.05599999999989791 0.0 0.0
0.05699999999989638 0.0 0.0
0.05799999999989484 0.0 0.0
0.05899999999989317 0.0 0.0
0.05999999999989129 0.0 0.0
0.06099999999988941 0.0 0.0
0.06199999999988753 0.0 0.0
0.06299999999988531 0.0 0.0
0.06399999999988273 0.0 0.0
0.06499999999988015 0.0 0.0
0.06599999999987759 0.0 0.0
0.0669999999998748 0.0 0.0
0.06799999999987189 0.0 0.0
0.06899999999986897 0.0 0.0
0.06999999999986604 0.0 0.0
0.07099999999986313 0.0 0.0
0.0719999999998602 0.0 0.0
0.07299999999985729 0.0 0.0
0.07399999999985438 0.0 0.0
0.07499999999985145 0.0 0.0
0.07599999999984854 0.0 0.0
0.07699999999984562 0.0 0.0
0.0779999999998427 0.0 0.0
0.07899999999983978 0.0 0.0
0.07999999999983685 0.0 0.0
0.08099999999983394 0.0 0.0
0.08199999999983103 0.0 0.0
0.0829999999998281 0.0 0.0
0.08399999999982519 0.0 0.0
0.08499999999982226 0.0 0.0
0.08599999999981935 0.0 0.0
0.08699999999981643 0.0 0.0
0.0879999999998135 0.0 0.0
0.08899999999981059 0.0 0.0
0.08999999999980766 0.0 0.0
0.09099999999980475 0.0 0.0
0.09199999999980184 0.0 0.0
0.09299999999979891 0.0 0.0
0.093999999999796 0.0 0.0
0.09499999999979307 0.0 0.0
0.09599999999979016 0.0 0.0
0.09699999999978724 0.0 0.0
0.09799999999978432 0.0 0.0
0.0989999999997814 0.0 0.0
0.09999999999977847 0.0 0.0
0.1009999999997756 0.0 0.0
0.1019999999997726 0.0 0.0
0.1029999999997697 0.0 0.0
0.1039999999997668 0.0 0.0
0.1049999999997639 0.0 0.0
0.105999999999761 0.0 0.0
0.106999999999758 0.0 0.0
0.1079999999997551 0.0 0.0
0.1089999999997522 0.0 0.0
0.1099999999997493 0.0 0.0
0.1109999999997464 0.0 0.0
0.1119999999997434 0.0 0.0
0.1129999999997405 0.0 0.0
0.1139999999997376 0.0 0.0
0.1149999999997347 0.0 0.0
0.1159999999997318 0.0 0.0
0.1169999999997288 0.0 0.0
0.1179999999997259 0.0 0.0
0.118999999999723 0.0 0.0
0.1199999999997201 0.0 0.0
0.1209999999997172 0.0 0.0
0.1219999999997143 0.0 0.0
0.1229999999997113 0.0 0.0
0.1239999999997084 0.0 0.0
0.1249999999997055 0.0 0.0
0.1259999999997026 0.0 0.0
0.1269999999996997 0.0 0.0
0.1279999999996967 0.0 0.0
0.1289999999996938 0.0 0.0
0.1299999999996909 0.0 0.0
0.130999999999688 0.0 0.0
0.1319999999996851 0.0 0.0
0.1329999999996822 0.0 0.0
0.1339999999996792 0.0 0.0
0.1349999999996764 0.0 0.0
0.1359999999996734 0.0 0.0
0.1369999999996705 0.0 0.0
0.1379999999996676 0.0 0.0
0.1389999999996647 0.0 0.0
0.1399999999996618 0.0 0.0
0.1409999999996588 0.0 0.0
0.1419999999996559 0.0 0.0
0.142999999999653 0.0 0.0
0.1439999999996501 0.0 0.0
0.1449999999996472 0.0 0.0
0.1459999999996442 0.0 0.0
0.1469999999996414 0.0 0.0
0.1479999999996384 0.0 0.0
0.1489999999996355 0.0 0.0
0.1499999999996326 0.0 0.0
0.1509999999996297 0.0 0.0
0.1519999999996268 0.0 0.0
0.1529999999996239 0.0 0.0
0.1539999999996209 0.0 0.0
0.154999999999618 0.0 0.0
0.1559999999996151 0.0 0.0
0.1569999999996122 0.0 0.0
0.1579999999996093 0.0 0.0
0.1589999999996064 0.0 0.0
0.1599999999996035 0.0 0.0
0.1609999999996005 0.0 0.0
0.1619999999995976 0.0 0.0
0.1629999999995947 0.0 0.0
0.1639999999995918 0.0 0.0
0.1649999999995889 0.0 0.0
0.165999999999586 0.0 0.0
0.1669999999995831 0.0 0.0
0.1679999999995801 0.0 0.0
0.1689999999995772 0.0 0.0
0.1699999999995743 0.0 0.0
0.1709999999995714 0.0 0.0
0.1719999999995685 0.0 0.0
0.1729999999995655 0.0 0.0
0.1739999999995626 0.0 0.0
0.1749999999995597 0.0 0.0
0.1759999999995568 0.0 0.0
0.1769999999995539 0.0 0.0
0.177999999999551 0.0 0.0
0.178999999999548 0.0 0.0
0.1799999999995451 0.0 0.0
0.1809999999995422 0.0 0.0
0.1819999999995393 0.0 0.0
0.1829999999995364 0.0 0.0
0.1839999999995335 0.0 0.0
0.1849999999995305 0.0 0.0
0.1859999999995277 0.0 0.0
0.1869999999995247 0.0 0.0
0.1879999999995218 0.0 0.0
0.1889999999995189 0.0 0.0
0.189999999999516 0.0 0.0
0.1909999999995131 0.0 0.0
0.1919999999995101 0.0 0.0
0.1929999999995072 0.0 0.0
0.1939999999995043 0.0 0.0
0.1949999999995014 0.0 0.0
0.1959999999994985 0.0 0.0
0.1969999999994956 0.0 0.0
0.1979999999994927 0.0 0.0
0.1989999999994897 0.0 0.0
0.1999999999994868 0.0 0.0
0.2009999999994839 0.0 0.0
0.201999999999481 0.0 0.0
0.2029999999994781 0.0 0.0
0.2039999999994752 0.0 0.0
0.2049999999994722 0.0 0.0
0.2059999999994693 0.0 0.0
0.2069999999994664 0.0 0.0
0.2079999999994635 0.0 0.0
0.2089999999994606 0.0 0.0
0.2099999999994577 0.0 0.0
0.2109999999994548 0.0 0.0
0.2119999999994518 0.0 0.0
0.2129999999994489 0.0 0.0
0.213999999999446 0.0 0.0
0.2149999999994431 0.0 0.0
0.2159999999994402 0.0 0.0
0.2169999999994373 0.0 0.0
0.2179999999994343 0.0 0.0
0.2189999999994314 0.0 0.0
0.2199999999994285 0.0 0.0
0.2209999999994256 0.0 0.0
0.2219999999994227 0.0 0.0
0.2229999999994198 0.0 0.0
0.2239999999994168 0.0 0.0
0.2249999999994139 0.0 0.0
0.225999999999411 0.0 0.0
0.2269999999994081 0.0 0.0
0.2279999999994052 0.0 0.0
0.2289999999994023 0.0 0.0
0.2299999999993994 0.0 0.0
0.2309999999993964 0.0 0.0
0.2319999999993935 0.0 0.0
0.2329999999993906 0.0 0.0
0.2339999999993877 0.0 0.0
0.2349999999993848 0.0 0.0
0.2359999999993818 0.0 0.0
0.236999999999379 0.0 0.0
0.237999999999376 0.0 0.0
0.2389999999993731 0.0 0.0
0.2399999999993702 0.0 0.0
0.2409999999993673 0.0 0.0
0.2419999999993644 0.0 0.0
0.2429999999993615 0.0 0.0
0.2439999999993585 0.0 0.0
0.2449999999993556 0.0 0.0
0.2459999999993527 0.0 0.0
0.246999999999351 0.0 0.0
0.2479999999993495 0.0 0.0
0.248999999999348 0.0 0.0
0.2499999999993464 0.0 0.0
0.2509999999993477 0.0 0.0
0.2519999999993489 0.0 0.0
0.2529999999993502 0.0 0.0
0.2539999999993516 0.0 0.0
0.2549999999993542 0.0 0.0
0.2559999999993569 0.0 0.0
0.2569999999993595 0.0 0.0
0.2579999999993621 0.0 0.0
0.2589999999993647 0.0 0.0
0.2599999999993673 0.0 0.0
0.26099999999937 0.0 0.0
0.2619999999993726 0.0 0.0
0.2629999999993753 0.0 0.0
0.2639999999993779 0.0 0.0
0.2649999999993806 0.0 0.0
0.2659999999993832 0.0 0.0
0.2669999999993858 0.0 0.0
0.2679999999993884 0.0 0.0
0.2689999999993911 0.0 0.0
0.2699999999993937 0.0 0.0
0.2709999999993963 0.0 0.0
0.271999999999399 0.0 0.0
0.2729999999994017 0.0 0.0
0.2739999999994043 0.0 0.0
0.2749999999994069 0.0 0.0
0.2759999999994096 0.0 0.0
0.2769999999994122 0.0 0.0
0.2779999999994148 0.0 0.0
0.2789999999994174 0.0 0.0
0.2799999999994201 0.0 0.0
0.2809999999994228 0.0 0.0
0.2819999999994254 0.0 0.0
0.282999999999428 0.0 0.0
0.2839999999994306 0.0 0.0
0.2849999999994333 0.0 0.0
0.2859999999994359 0.0 0.0
0.2869999999994385 0.0 0.0
0.2879999999994411 0.0 0.0
0.2889999999994439 0.0 0.0
0.2899999999994465 0.0 0.0
0.2909999999994491 0.0 0.0
0.2919999999994517 0.0 0.0
0.2929999999994544 0.0 0.0
0.293999999999457 0.0 0.0
0.2949999999994596 0.0 0.0
0.2959999999994622 0.0 0.0
0.2969999999994649 0.0 0.0
0.2979999999994676 0.0 0.0
0.2989999999994702 0.0 0.0
0.2999999999994728 0.0 0.0
0.3009999999994754 0.0 0.0
0.3019999999994781 0.0 0.0
0.3029999999994807 0.0 0.0
0.3039999999994834 0.0 0.0
0.304999999999486 0.0 0.0
0.3059999999994886 0.0 0.0
0.3069999999994913 0.0 0.0
0.3079999999994939 0.0 0.0
0.3089999999994965 0.0 0.0
0.3099999999994992 0.0 0.0
0.3109999999995018 0.0 0.0
0.3119999999995045 0.0 0.0
0.3129999999995071 0.0 0.0
0.3139999999995097 0.0 0.0
0.3149999999995123 0.0 0.0
0.315999999999515 0.0 0.0
0.3169999999995176 0.0 0.0
0.3179999999995203 0.0 0.0
0.3189999999995229 0.0 0.0
0.3199999999995256 0.0 0.0
0.3209999999995282 0.0 0.0
0.3219999999995308 0.0 0.0
0.3229999999995334 0.0 0.0
0.323999999999536 0.0 0.0
0.3249999999995387 0.0 0.0
0.3259999999995414 0.0 0.0
0.326999999999544 0.0 0.0
0.3279999999995466 0.0 0.0
0.3289999999995493 0.0 0.0
0.3299999999995519 0.0 0.0
0.3309999999995545 0.0 0.0
0.3319999999995571 0.0 0.0
0.3329999999995598 0.0 0.0
0.3339999999995625 0.0 0.0
0.3349999999995651 0.0 0.0
0.3359999999995677 0.0 0.0
0.3369999999995703 0.0 0.0
0.337999999999573 0.0 0.0
0.3389999999995756 0.0 0.0
0.3399999999995783 0.0 0.0
0.3409999999995809 0.0 0.0
0.3419999999995835 0.0 0.0
0.3429999999995862 0.0 0.0
0.3439999999995888 0.0 0.0
0.3449999999995914 0.0 0.0
0.345999999999594 0.0 0.0
0.3469999999995967 0.0 0.0
0.3479999999995994 0.0 0.0
0.348999999999602 0.0 0.0
0.3499999999996046 0.0 0.0
0.3509999999996072 0.0 0.0
0.3519999999996099 0.0 0.0
0.3529999999996125 0.0 0.0
0.3539999999996151 0.0 0.0
0.3549999999996178 0.0 0.0
0.3559999999996205 0.0 0.0
0.3569999999996231 0.0 0.0
0.3579999999996257 0.0 0.0
0.3589999999996283 0.0 0.0
0.359999999999631 0.0 0.0
0.3609999999996336 0.0 0.0
0.3619999999996362 0.0 0.0
[...]
POINT_DATA 7930
SCALARS Disp float 2
LOOKUP_TABLE default
0.0 0.0014654451438699263
0.0 0.1
0.0 0.1
0.0 0.0
4.6621374986529185e-06 0.0
-6.85854822988292e-06 0.0014652465808501448
-1.3723427997885265e-05 0.0014649282266580442
-2.0554931110301684e-05 0.0014640906905996952
-2.7266427049531574e-05 0.0014626558573807835
-3.398249850203909e-05 0.0014615504914388597
-4.110597359311475e-05 0.0014607166160466429
-4.817226268235696e-05 0.0014581177849450331
-5.46103087439091e-05 0.0014545791433759048
-6.111015549147979e-05 0.0014525020434122955
-6.819442272221336e-05 0.0014513325202593274
-7.560510275380502e-05 0.0014477791459527778
-8.216296746405195e-05 0.0014424895717453398
-8.837029238735068e-05 0.0014387846318925765
-9.545861061658856e-05 0.0014365158231508743
-0.0001029929480360428 0.001432135919775163
-0.0001095218529462452 0.0014254099072880972
-0.00011566654859963679 0.0014203620157538282
-0.00012285069603964024 0.001417015382109601
-0.00013076212639927243 0.0014112802064382734
-0.00013732157825186567 0.0014024496542317333
-0.00014328589917014605 0.0013958929452224276
-0.0001503358511292567 0.0013916463949976456
-0.00015815648183032 0.0013847894434397114
-0.00016491364760937824 0.0013744029894294976
-0.00017069172378653903 0.0013657801937348067
-0.0001777057707884627 0.0013604837742423796
-0.00018537159036565817 0.0013523492307969454
-0.0001922949280942253 0.001340353189717429
-0.0001981455422980695 0.0013298080875151516
-0.00020485217674297458 0.0013225794666307002
-0.00021235937234592343 0.0013133474801177074
-0.00021924485087320038 0.0012997236528892384
-0.00022491891572755797 0.0012874790376905128
-0.0002315400735783847 0.0012792476214205848
-0.00023926323874114028 0.001268718552007453
-0.0002465198347989756 0.0012532816298270804
-0.00025239050097832297 0.00123877030566577
-0.0002589955210823034 0.0012283904694853558
-0.00026678247255536823 0.0012160397053434648
-0.0002739020362156693 0.001198156332969621
-0.0002794574281172873 0.0011812990664919593
-0.00028586791236735623 0.001169295261567473
-0.00029359983540301935 0.0011551955728029077
-0.00030119874101783214 0.0011352742705115378
-0.0003069903816558269 0.0011154883301726837
-0.00031332010077662496 0.0011005820013847822
-0.0003214728441755485 0.0010841878551411685
-0.00032864246344146416 0.0010611579395806599
-0.00033435716006069297 0.0010381775542214753
-0.00034043432092037613 0.0010200027498777414
-0.00034845447892812323 0.001000535415796915
-0.00035577940720522307 0.0009743071643314663
-0.00036148151496520614 0.0009468485750985672
-0.0003672690142032451 0.0009252244442698474
-0.00037533326122999054 0.0009022881581655934
-0.0003831914339681861 0.0008715307452077057
-0.00038902943828149355 0.0008388676289549859
-0.00039470482503070755 0.0008108849632935699
-0.00040275359056228375 0.0007816727744379376
-0.00041029301956146063 0.0007444018170776519
-0.0004162670799657701 0.000703697090649622
-0.00042181921777881146 0.0006668501567035829
-0.0004296579140558172 0.0006279698361722813
-0.0004372825931642967 0.0005788547995079003
-0.00044384805006553966 0.0005227085261457595
-0.0004486203878212468 0.000466848527597997
-0.00045582379577577937 0.00040228287758147814
-0.00046032768608399567 0.0003180667391654666
-0.00045690375211288937 0.00020242231640807678
-0.00043142794898097834 0.0
-0.0003903471164082691 0.0
-0.00036546641011145093 0.0
-0.0003448610443138046 0.0
-0.0003285276354467882 0.0
-0.0003144732260437536 0.0
-0.00030249568741977676 0.0
-0.0002918416305536813 0.0
-0.0002823159668973333 0.0
-0.00027350473777943736 0.0
-0.0002654676152428326 0.0
-0.00025801557599662117 0.0
-0.0002510351710582566 0.0
-0.0002445051129753761 0.0
-0.00023841780406479602 0.0
-0.00023263774826125453 0.0
-0.0002271379002326231 0.0
-0.00022194259080362942 0.0
-0.0002169999867797335 0.0
-0.0002123037358851955 0.0
-0.00020780725154122279 0.0
-0.0002035074920357893 0.0
-0.00019939188694489865 0.0
-0.0001954388670961642 0.0
-0.00019164244687130882 0.0
-0.0001880048660722418 0.0
-0.00018450007624625073 0.0
-0.00018110144801883785 0.0
-0.00017782193572494294 0.0
-0.00017463639024524604 0.0
-0.00017156317027271266 0.0
-0.00016858064512145044 0.0
-0.00016569593428482614 0.0
-0.0001628981980962561 0.0
-0.000160183156187986 0.0
-0.00015754392816272938 0.0
-0.00015495911737685742 0.0
-0.00015245573708434188 0.0
-0.00015004189067183656 0.0
-0.00014764878085832373 0.0
-0.00014533575726960186 0.0
-0.00014308533209388125 0.0
-0.00014088293852354376 0.0
-0.0001387379081289755 0.0
-0.00013664634782327288 0.0
-0.00013459868909488734 0.0
-0.00013260120988749016 0.0
-0.000130653489237735 0.0
-0.00012875107137007183 0.0
-0.0001269023732964459 0.0
-0.0001250651399065795 0.0
-0.0001232838359344946 0.0
-0.00012153254975688409 0.0
-0.00011982253454446398 0.0
-0.00011813506066743422 0.0
-0.00011648527392456763 0.0
-0.00011486486695204541 0.0
-0.00011327372536677962 0.0
-0.00011171111438997987 0.0
-0.00011017788134942421 0.0
-0.00010867267560357306 0.0
-0.0001071940075341253 0.0
-0.00010574127461804669 0.0
-0.00010431853994206929 0.0
-0.0001029264758065436 0.0
-0.00010154732964240491 0.0
-0.00010019960180906582 0.0
-9.887314142495772e-05 0.0
-9.757073260278077e-05 0.0
-9.628954015841734e-05 0.0
-9.502983090600294e-05 0.0
-9.379219434704657e-05 0.0
-9.257519330715314e-05 0.0
-9.137771329932987e-05 0.0
-9.01966815233003e-05 0.0
-8.903450071773191e-05 0.0
-8.789000376136284e-05 0.0
-8.676121581770067e-05 0.0
-8.564944057640852e-05 0.0
-8.455295356227421e-05 0.0
-8.347016572594302e-05 0.0
-8.240203386793697e-05 0.0
-8.134835048670768e-05 0.0
-8.030760812883687e-05 0.0
-7.927996712886626e-05 0.0
-7.826715243386912e-05 0.0
-7.727004658066433e-05 0.0
-7.628053779287459e-05 0.0
-7.530995877102817e-05 0.0
-7.435086896787855e-05 0.0
-7.340510576562256e-05 0.0
-7.247468784418525e-05 0.0
-7.155102293598397e-05 0.0
-7.064508158871468e-05 0.0
-6.975158312209776e-05 0.0
-6.887034799478648e-05 0.0
-6.80020172251905e-05 0.0
-6.714585198387395e-05 0.0
-6.630127681598405e-05 0.0
-6.546791050526878e-05 0.0
-6.464614576282491e-05 0.0
-6.383511574363289e-05 0.0
-6.30339664698538e-05 0.0
-6.224425072381227e-05 0.0
-6.146554129260238e-05 0.0
-6.069627505712466e-05 0.0
-5.9936374158602806e-05 0.0
-5.918644925299993e-05 0.0
-5.844633520287822e-05 0.0
-5.7713954907928833e-05 0.0
-5.699033643674197e-05 0.0
-5.6275657303272953e-05 0.0
-5.556865869490565e-05 0.0
-5.4869302081179494e-05 0.0
-5.4177670687317186e-05 0.0
-5.3494182295858665e-05 0.0
-5.281726752774149e-05 0.0
-5.214756125628106e-05 0.0
-5.148481718035379e-05 0.0
-5.082871108763885e-05 0.0
-5.0179585838856445e-05 0.0
-4.953752084866873e-05 0.0
-4.890140943061478e-05 0.0
-4.8271803121761544e-05 0.0
-4.7648288178386524e-05 0.0
-4.703117802827579e-05 0.0
-4.6421055787291265e-05 0.0
-4.581684645185823e-05 0.0
-4.52184721215123e-05 0.0
-4.4626958923733444e-05 0.0
-4.4041124776736836e-05 0.0
-4.3461603820193664e-05 0.0
-4.2888712866945344e-05 0.0
-4.2322158202158424e-05 0.0
-4.1761613333582085e-05 0.0
-4.120824658901616e-05 0.0
-4.065941212965824e-05 0.0
-4.011686167353386e-05 0.0
-3.958042909661689e-05 0.0
-3.905048543756737e-05 0.0
-3.8526231991529655e-05 0.0
-3.800785400203982e-05 0.0
-3.749526067978133e-05 0.0
-3.6987901893648004e-05 0.0
-3.6485988235642773e-05 0.0
-3.599065494222535e-05 0.0
-3.54981655185777e-05 0.0
-3.50116366146664e-05 0.0
-3.453022744331428e-05 0.0
-3.40529715954942e-05 0.0
-3.3580262634951114e-05 0.0
-3.3112068603173155e-05 0.0
-3.2648030180767055e-05 0.0
-3.218793591222659e-05 0.0
-3.173196011632025e-05 0.0
-3.127996878533242e-05 0.0
-3.083171664348036e-05 0.0
-3.0387539812421453e-05 0.0
-2.9947050203259484e-05 0.0
-2.9510280158840683e-05 0.0
-2.9077454962005145e-05 0.0
-2.864817055439867e-05 0.0
-2.82224241244492e-05 0.0
-2.7800685470281527e-05 0.0
-2.73828917695319e-05 0.0
-2.6968632060783967e-05 0.0
-2.655866301219009e-05 0.0
-2.615248608328693e-05 0.0
-2.5750534491141263e-05 0.0
-2.5352659353728006e-05 0.0
-2.4958745179590967e-05 0.0
-2.456884701722634e-05 0.0
-2.4183010105156975e-05 0.0
-2.3801253103263484e-05 0.0
-2.3423354879914384e-05 0.0
-2.3049573773739677e-05 0.0
-2.2680069841978402e-05 0.0
-2.2314202034491645e-05 0.0
-2.1952106641648897e-05 0.0
-2.1594088540865673e-05 0.0
-2.1239723287027894e-05 0.0
-2.088891319674229e-05 0.0
-2.0541598500837705e-05 0.0
-2.0197543217776062e-05 0.0
-1.9856685894554333e-05 0.0
-1.9519127910063096e-05 0.0
-1.9184391316557626e-05 0.0
-1.885260282560107e-05 0.0
-1.8523586867124093e-05 0.0
-1.819732533965784e-05 0.0
-1.787369240226424e-05 0.0
-1.75525704209747e-05 0.0
-1.7233791022855114e-05 0.0
-1.6917276844389607e-05 0.0
-1.660314046941181e-05 0.0
-1.6291160260835534e-05 0.0
-1.5981504450966765e-05 0.0
-1.5674134260389745e-05 0.0
-1.536897550332484e-05 0.0
-1.5065405710693091e-05 0.0
-1.4764931732635144e-05 0.0
-1.4465948137903067e-05 0.0
-1.4169947859829203e-05 0.0
-1.3875498496764474e-05 0.0
-1.358355029610322e-05 0.0
-1.3294001080273098e-05 0.0
-1.3006967080870914e-05 0.0
-1.2722443726614301e-05 0.0
-1.2440357308754278e-05 0.0
-1.2160897710959316e-05 0.0
-1.1884054735592303e-05 0.0
-1.1609854943285156e-05 0.0
-1.1338302150546132e-05 0.0
-1.106942283760594e-05 0.0
-1.0803285799642509e-05 0.0
-1.053971895581805e-05 0.0
-1.0278866797786578e-05 0.0
-1.0020839990727393e-05 0.0
-9.765505763076614e-06 0.0
-9.512956077579581e-06 0.0
-9.262257931753645e-06 0.0
-9.014610953196126e-06 0.0
-8.769438734125924e-06 0.0
-8.526848992529422e-06 0.0
-8.2870643805851e-06 0.0
-8.048975743704537e-06 0.0
-7.813359225646372e-06 0.0
-7.580083040344029e-06 0.0
-7.349075237653164e-06 0.0
-7.120130252905775e-06 0.0
-6.893283414494654e-06 0.0
-6.6683828608293686e-06 0.0
-6.445548797441421e-06 0.0
-6.224618041947138e-06 0.0
-6.005573368066953e-06 0.0
-5.788423740281709e-06 0.0
-5.573143141742432e-06 0.0
-5.3597292795183805e-06 0.0
-5.147472042454603e-06 0.0
-4.937279244633329e-06 0.0
-4.72889766093046e-06 0.0
-4.52232316308052e-06 0.0
-4.317798531363696e-06 0.0
-4.1143126480732115e-06 0.0
-3.912657362575628e-06 0.0
-3.712809715765088e-06 0.0
-3.514750820041454e-06 0.0
-3.318479896945121e-06 0.0
-3.124184518470809e-06 0.0
-2.9316769232790813e-06 0.0
-2.7409543678443625e-06 0.0
-2.552087950361699e-06 0.0
-2.365147290718484e-06 0.0
-2.1800520912680093e-06 0.0
-1.9968292569107217e-06 0.0
-1.8156358051155596e-06 0.0
-1.636461447836142e-06 0.0
-1.4592182148920658e-06 0.0
-1.2839144433380645e-06 0.0
-1.1107021242096837e-06 0.0
-9.395491181266474e-07 0.0
-7.703025516306167e-07 0.0
-6.031146101814804e-07 0.0
-4.37870264316378e-07 0.0
-2.74685978614358e-07 0.0
-1.134576279211274e-07 0.0
4.5843985953828875e-08 0.0
2.0325403345031394e-07 0.0
3.587685934756153e-07 0.0
5.122748838660252e-07 0.0
6.638745646783172e-07 0.0
8.136249775845657e-07 0.0
9.615663054256627e-07 0.0
1.1076558270888971e-06 0.0
1.251889071437998e-06 0.0
1.3942376105040322e-06 0.0
1.5348622382079071e-06 0.0
1.6736189297695882e-06 0.0
1.810676381727099e-06 0.0
1.9461398107239956e-06 0.0
2.079686570108264e-06 0.0
2.2113443201299088e-06 0.0
2.3414739924090738e-06 0.0
2.4696987186901913e-06 0.0
2.5962664317208893e-06 0.0
2.7210382483958076e-06 0.0
2.8437865137868287e-06 0.0
2.9649070146773824e-06 0.0
3.08415339719893e-06 0.0
3.2015497711670247e-06 0.0
3.3172227087424676e-06 0.0
3.4308263787570446e-06 0.0
3.542373208009831e-06 0.0
3.652024208203426e-06 0.0
3.7595886659718295e-06 0.0
3.865106103550269e-06 0.0
3.968549479483201e-06 0.0
4.069786784831675e-06 0.0
4.168842532320079e-06 0.0
4.265625211010483e-06 0.0
4.36043026255095e-06 0.0
4.452871207329182e-06 0.0
4.542931473271884e-06 0.0
4.630620083371284e-06 0.0
4.7159576206410306e-06 0.0
4.798893948273706e-06 0.0
4.879465640879316e-06 0.0
4.957573293325436e-06 0.0
5.033244359483207e-06 0.0
5.1067971997786804e-06 0.0
5.177779461280541e-06 0.0
5.246095729153696e-06 0.0
5.312233497670033e-06 0.0
5.376175411221032e-06 0.0
5.4375044138418515e-06 0.0
5.496426326700816e-06 0.0
5.553156851081429e-06 0.0
5.60768110308783e-06 0.0
5.659934060191699e-06 0.0
5.7101505055404675e-06 0.0
5.7580720141909275e-06 0.0
5.803722309492465e-06 0.0
5.847520103594297e-06 0.0
5.889321691167722e-06 0.0
5.9291761982481664e-06 0.0
5.967329771603736e-06 0.0
6.003462726397983e-06 0.0
6.037808866491435e-06 0.0
6.070521237170694e-06 0.0
6.101494143725316e-06 0.0
6.1308472991256095e-06 0.0
6.158802346635682e-06 0.0
6.185283310711739e-06 0.0
6.210337251608556e-06 0.0
6.234013551073596e-06 0.0
6.256416054459918e-06 0.0
6.2775735815960635e-06 0.0
6.2975405272899805e-06 0.0
6.3163377007818105e-06 0.0
6.334060651083224e-06 0.0
6.350717842761225e-06 0.0
6.366388463546629e-06 0.0
6.381114639460425e-06 0.0
6.394854818701641e-06 0.0
6.407656585508601e-06 0.0
6.4195615624990265e-06 0.0
6.430553140616129e-06 0.0
6.440685823370696e-06 0.0
6.450014174610815e-06 0.0
6.458484003623295e-06 0.0
6.466150402726061e-06 0.0
6.472995557097031e-06 0.0
6.478998495173857e-06 0.0
6.484181958759904e-06 0.0
6.488633378204306e-06 0.0
6.492171378369166e-06 0.0
6.4948782719424604e-06 0.0
6.496719370557626e-06 0.0
6.49774720917513e-06 0.0
6.49793921344057e-06 0.0
6.4972490584767916e-06 0.0
6.495679887764503e-06 0.0
6.493237916841307e-06 0.0
6.4898930897321974e-06 0.0
6.485602572002868e-06 0.0
6.4804109883916065e-06 0.0
6.474241478645406e-06 0.0
6.467126816089609e-06 0.0
6.459039727783386e-06 0.0
6.449980515935997e-06 0.0
6.440021506479226e-06 0.0
6.429017068827616e-06 0.0
6.4170065203461236e-06 0.0
6.403990456211029e-06 0.0
6.3900053340196544e-06 0.0
6.375031321640847e-06 0.0
6.3591375110156185e-06 0.0
6.342199531732199e-06 0.0
6.324309252457354e-06 0.0
6.305483588397748e-06 0.0
6.285684225551586e-06 0.0
6.264970536447947e-06 0.0
6.243370387140742e-06 0.0
6.220879273724799e-06 0.0
6.197520435180278e-06 0.0
6.173315991011352e-06 0.0
6.148237476780842e-06 0.0
6.122415067079423e-06 0.0
6.095804702352852e-06 0.0
6.068452343025426e-06 0.0
6.040378794240923e-06 0.0
6.011594503308888e-06 0.0
5.9821614251083e-06 0.0
5.952128566527957e-06 0.0
5.921542434735148e-06 0.0
5.89037698941701e-06 0.0
5.858644173672751e-06 0.0
5.826422961476602e-06 0.0
5.793797733035561e-06 0.0
5.7607446284570576e-06 0.0
5.727317125611094e-06 0.0
5.693533068118106e-06 0.0
5.659431104515062e-06 0.0
5.625028958032078e-06 0.0
5.590360458480724e-06 0.0
5.5554746178818775e-06 0.0
5.520367680799381e-06 0.0
5.485083088539525e-06 0.0
5.449640862435638e-06 0.0
5.414076083584019e-06 0.0
5.378411266241796e-06 0.0
5.342662104808228e-06 0.0
5.306842353962772e-06 0.0
5.270968127545999e-06 0.0
5.235072705484692e-06 0.0
5.199152587198267e-06 0.0
5.1632214376244705e-06 0.0
5.127292631626282e-06 0.0
5.091368446040955e-06 0.0
5.055472200681099e-06 0.0
5.01959809549737e-06 0.0
4.9837510282575525e-06 0.0
4.947930365819426e-06 0.0
4.912144738766676e-06 0.0
4.8763823715418615e-06 0.0
4.840643965939497e-06 0.0
4.804923209289236e-06 0.0
4.769219612815675e-06 0.0
4.733530517312512e-06 0.0
4.697837337752276e-06 0.0
4.6251315721572844e-06 0.0
4.5848674828635e-06 0.0
4.541042806054964e-06 0.0
4.493313092440911e-06 0.0
4.441286471969962e-06 0.0
4.384527863197443e-06 0.0
4.322528500874556e-06 0.0
4.254707385172534e-06 0.0
4.180391553501111e-06 0.0
4.098802855651633e-06 0.0
4.009017780398213e-06 0.0
3.91002922188973e-06 0.0
3.800569092129978e-06 0.0
3.6793612728044623e-06 0.0
3.5448907665175785e-06 0.0
3.395419586425818e-06 0.0
3.229423575062584e-06 0.0
3.0456310440222813e-06 0.0
2.842658173272603e-06 0.0
2.620286953291848e-06 0.0
2.378966511708893e-06 0.0
2.1208281129714443e-06 0.0
1.850739210697325e-06 0.0
1.5719918040300287e-06 0.0
1.2949315805822963e-06 0.0
1.0265025475145412e-06 0.0
7.791835242898202e-07 0.0
5.624826354651993e-07 0.0
3.823861106631185e-07 0.0
2.42899177079676e-07 0.0
1.4246721409935306e-07 0.0
7.614760948498162e-08 0.0
3.6112455255538136e-08 0.0
1.5323313699980343e-08 0.0
5.578029605557192e-09 0.0
1.6809058505969341e-09 0.0
3.975460910367496e-10 0.0
7.480287643666766e-11 0.0
1.2369155658564738e-11 0.0
1.4622164759650292e-12 0.0
8.08417334161887e-14 0.0
3.203834629416833e-15 0.0
2.537719505793558e-16 0.0
-2.87005956506802e-17 0.0
4.5115135960155926e-17 0.0
2.840944436939165e-17 0.0
3.666495363912679e-17 0.0
4.862724470182494e-17 0.0
-3.846624455351183e-18 0.0
-5.281683462690863e-17 0.0
-3.7057789315847557e-17 0.0
6.119858743945527e-18 0.0
-7.862163703249393e-18 0.0
4.342352616455744e-17 0.0
6.396104898136703e-17 0.0
8.556379015275787e-17 0.0
4.4827882141011594e-17 0.0
-8.33732750520265e-17 0.0
-1.0033860896313433e-16 0.0
6.276046498610204e-17 0.0
4.644979692262157e-16 0.0
3.7075758949951945e-16 0.0
-2.310054317805302e-17 0.0
4.692693166953237e-18 0.0
-3.40914190322743e-16 0.0
-8.141396565630054e-17 0.0
1.0166495254926474e-16 0.0
5.2338470961511744e-17 0.0
-8.975704405634415e-17 0.0
1.851083333569488e-16 0.0
-1.390793981847208e-17 0.0
5.296640181866387e-16 0.0
-7.8263612290136e-16 0.0
-4.2004559154085996e-17 0.0
1.263380450763243e-15 0.0
-4.590248742292378e-16 0.0
-4.4344254980642374e-16 0.0
3.7886553822598893e-16 0.0
-5.795091625429736e-16 0.0
0.0 0.009234165287260156
0.0 0.02210978593045659
0.0 0.04006285207148587
0.0 0.06509563926316242
-7.468097843271019e-16 0.1
-1.1817683931420637e-15 0.1
1.3760112948337251e-14 0.1
-1.523640505571613e-14 0.1
0.0 0.09234095951661761
0.0 0.08526779443702995
0.0 0.07873568783498
0.0 0.0727032535816671
0.0 0.06713226878994683
0.0 0.061987433310927924
0.0 0.057236152337958604
0.0 0.052848316929523326
0.0 0.04879612844994904
0.0 0.04505391065784268
0.0 0.041597952827117674
0.0 0.03840635724257331
0.0 0.03545890171822481
0.0 0.03273691087332963
0.0 0.03022313773603341
0.0 0.02790165483820633
0.0 0.02575775300196254
0.0 0.023777848352117128
0.0 0.021949395807803945
0.0 0.02026081025589521
0.0 0.018701392223655893
0.0 0.017261261595035354
0.0 0.015931293336679055
0.0 0.01470306037299385
0.0 0.01356878078282364
0.0 0.012521267483599075
0.0 0.011553883411174273
0.0 0.010660499153295092
0.0 0.009835453926237426
0.0 0.009073520382215526
0.0 0.008369869043680601
0.0 0.007720057467727363
0.0 0.0071199173904095145
0.0 0.006565521038911886
0.0 0.006056150066082185
0.0 0.005589881752793089
0.0 0.00516158162312896
0.0 0.004769513428789706
0.0 0.004410389046766132
0.0 0.004082345618646864
0.0 0.0037834878738849387
0.0 0.0035121255161447264
0.0 0.0032652540231971785
0.0 0.003041785228335031
0.0 0.0028395154672574427
0.0 0.0026569654999121658
0.0 0.0024926621488295855
0.0 0.002345807377960825
0.0 0.0022146388237999416
0.0 0.002098343980039859
0.0 0.001996624752013775
0.0 0.001907490862620617
0.0 0.0018301585781886397
0.0 0.0017640889285135443
0.0 0.0017077051700791815
0.0 0.001660776250566547
0.0 0.0016219594236191058
0.0 0.0015906621906272179
0.0 0.0015659217513355373
0.0 0.001546823983246768
0.0 0.0015321261753605856
0.0 0.0015213502624289103
0.0 0.0015139848788243595
0.0 0.0015081321385758326
0.0 0.0015046976500096548
0.0 0.0015015039201820841
0.0 0.0014995655726445063
0.0 0.0014981434127451115
0.0 0.0014968648350802626
0.0 0.0014956877417978236
0.0 0.0014942613383195026
0.0 0.00149273522986098
0.0 0.0014909293778748497
0.0 0.0014889562755764669
0.0 0.0014867585531507014
0.0 0.001484528338920811
0.0 0.0014822045598436278
0.0 0.0014798101334396675
0.0 0.0014773675539239291
0.0 0.0014748452855291284
0.0 0.0014724286014211022
0.0 0.0014700623742807007
0.0 0.001467728639702853
-6.592772850118282e-09 0.004927242191993573
3.247964138635855e-05 0.0027902164065827877
7.583352931228033e-05 0.0016376089750799701
0.00011039034955349894 0.0011883198616684833
2.4288986438769906e-05 0.0014023455427213114
3.7018638094993293e-06 0.0022610447602168697
0.00011409462093958426 0.0011693777413920017
9.850119638086829e-06 0.001286693628009848
1.7451599188265027e-05 0.0008237600397995118
2.7318613262261368e-06 0.0007701492231230178
5.06488995779267e-06 0.0007039824428098431
8.169881515226031e-06 0.0006738881146933616
-4.2238496275950917e-16 0.014973736461407613
6.963523669885108e-06 0.0006655277774852453
2.5913769998167224e-05 0.0006162320293768051
-2.9328509310930613e-05 0.00047780910189601506
2.118992020264055e-06 0.0011707400158032385