# vtk DataFile Version 3.0
Some data
ASCII
DATASET UNSTRUCTURED_GRID
POINTS 7930 float
0.0 0.0 0.0
0.0 10.0 0.0
10.0 10.0 0.0
10.0 0.0 0.0
0.5 0.0 0.0
0.0009999999999981016 0.0 0.0
0.001999999999996203 0.0 0.0
0.002999999999994305 0.0 0.0
0.003999999999992409 0.0 0.0
0.004999999999990531 0.0 0.0
0.005999999999988653 0.0 0.0
0.006999999999986775 0.0 0.0
0.007999999999984898 0.0 0.0
0.008999999999983018 0.0 0.0
0.009999999999981142 0.0 0.0
0.01099999999997926 0.0 0.0
0.01199999999997736 0.0 0.0
0.0129999999999754 0.0 0.0
0.01399999999997343 0.0 0.0
0.01499999999997147 0.0 0.0
0.01599999999996944 0.0 0.0
0.0169999999999673 0.0 0.0
0.01799999999996516 0.0 0.0
0.01899999999996302 0.0 0.0
0.01999999999996084 0.0 0.0
0.02099999999995862 0.0 0.0
0.02199999999995639 0.0 0.0
0.02299999999995417 0.0 0.0
0.02399999999995195 0.0 0.0
0.02499999999994972 0.0 0.0
0.0259999999999475 0.0 0.0
0.02699999999994527 0.0 0.0
0.02799999999994315 0.0 0.0
0.0289999999999411 0.0 0.0
0.02999999999993905 0.0 0.0
0.030999999999937 0.0 0.0
0.03199999999993521 0.0 0.0
0.0329999999999335 0.0 0.0
0.0339999999999318 0.0 0.0
0.03499999999993009 0.0 0.0
0.03599999999992853 0.0 0.0
0.036999999999927 0.0 0.0
0.03799999999992547 0.0 0.0
0.03899999999992394 0.0 0.0
0.03999999999992241 0.0 0.0
0.04099999999992088 0.0 0.0
0.04199999999991934 0.0 0.0
0.04299999999991782 0.0 0.0
0.04399999999991629 0.0 0.0
0.04499999999991475 0.0 0.0
0.04599999999991322 0.0 0.0
0.0469999999999117 0.0 0.0
0.04799999999991016 0.0 0.0
0.04899999999990863 0.0 0.0
0.0499999999999071 0.0 0.0
0.05099999999990557 0.0 0.0
0.05199999999990404 0.0 0.0
0.05299999999990251 0.0 0.0
0.05399999999990097 0.0 0.0
0.05499999999989943 0.0 0.0
0.05599999999989791 0.0 0.0
0.05699999999989638 0.0 0.0
0.05799999999989484 0.0 0.0
0.05899999999989317 0.0 0.0
0.05999999999989129 0.0 0.0
0.06099999999988941 0.0 0.0
0.06199999999988753 0.0 0.0
0.06299999999988531 0.0 0.0
0.06399999999988273 0.0 0.0
0.06499999999988015 0.0 0.0
0.06599999999987759 0.0 0.0
0.0669999999998748 0.0 0.0
0.06799999999987189 0.0 0.0
0.06899999999986897 0.0 0.0
0.06999999999986604 0.0 0.0
0.07099999999986313 0.0 0.0
0.0719999999998602 0.0 0.0
0.07299999999985729 0.0 0.0
0.07399999999985438 0.0 0.0
0.07499999999985145 0.0 0.0
0.07599999999984854 0.0 0.0
0.07699999999984562 0.0 0.0
0.0779999999998427 0.0 0.0
0.07899999999983978 0.0 0.0
0.07999999999983685 0.0 0.0
0.08099999999983394 0.0 0.0
0.08199999999983103 0.0 0.0
0.0829999999998281 0.0 0.0
0.08399999999982519 0.0 0.0
0.08499999999982226 0.0 0.0
0.08599999999981935 0.0 0.0
0.08699999999981643 0.0 0.0
0.0879999999998135 0.0 0.0
0.08899999999981059 0.0 0.0
0.08999999999980766 0.0 0.0
0.09099999999980475 0.0 0.0
0.09199999999980184 0.0 0.0
0.09299999999979891 0.0 0.0
0.093999999999796 0.0 0.0
0.09499999999979307 0.0 0.0
0.09599999999979016 0.0 0.0
0.09699999999978724 0.0 0.0
0.09799999999978432 0.0 0.0
0.0989999999997814 0.0 0.0
0.09999999999977847 0.0 0.0
0.1009999999997756 0.0 0.0
0.1019999999997726 0.0 0.0
0.1029999999997697 0.0 0.0
0.1039999999997668 0.0 0.0
0.1049999999997639 0.0 0.0
0.105999999999761 0.0 0.0
0.106999999999758 0.0 0.0
0.1079999999997551 0.0 0.0
0.1089999999997522 0.0 0.0
0.1099999999997493 0.0 0.0
0.1109999999997464 0.0 0.0
0.1119999999997434 0.0 0.0
0.1129999999997405 0.0 0.0
0.1139999999997376 0.0 0.0
0.1149999999997347 0.0 0.0
0.1159999999997318 0.0 0.0
0.1169999999997288 0.0 0.0
0.1179999999997259 0.0 0.0
0.118999999999723 0.0 0.0
0.1199999999997201 0.0 0.0
0.1209999999997172 0.0 0.0
0.1219999999997143 0.0 0.0
0.1229999999997113 0.0 0.0
0.1239999999997084 0.0 0.0
0.1249999999997055 0.0 0.0
0.1259999999997026 0.0 0.0
0.1269999999996997 0.0 0.0
0.1279999999996967 0.0 0.0
0.1289999999996938 0.0 0.0
0.1299999999996909 0.0 0.0
0.130999999999688 0.0 0.0
0.1319999999996851 0.0 0.0
0.1329999999996822 0.0 0.0
0.1339999999996792 0.0 0.0
0.1349999999996764 0.0 0.0
0.1359999999996734 0.0 0.0
0.1369999999996705 0.0 0.0
0.1379999999996676 0.0 0.0
0.1389999999996647 0.0 0.0
0.1399999999996618 0.0 0.0
0.1409999999996588 0.0 0.0
0.1419999999996559 0.0 0.0
0.142999999999653 0.0 0.0
0.1439999999996501 0.0 0.0
0.1449999999996472 0.0 0.0
0.1459999999996442 0.0 0.0
0.1469999999996414 0.0 0.0
0.1479999999996384 0.0 0.0
0.1489999999996355 0.0 0.0
0.1499999999996326 0.0 0.0
0.1509999999996297 0.0 0.0
0.1519999999996268 0.0 0.0
0.1529999999996239 0.0 0.0
0.1539999999996209 0.0 0.0
0.154999999999618 0.0 0.0
0.1559999999996151 0.0 0.0
0.1569999999996122 0.0 0.0
0.1579999999996093 0.0 0.0
0.1589999999996064 0.0 0.0
0.1599999999996035 0.0 0.0
0.1609999999996005 0.0 0.0
0.1619999999995976 0.0 0.0
0.1629999999995947 0.0 0.0
0.1639999999995918 0.0 0.0
0.1649999999995889 0.0 0.0
0.165999999999586 0.0 0.0
0.1669999999995831 0.0 0.0
0.1679999999995801 0.0 0.0
0.1689999999995772 0.0 0.0
0.1699999999995743 0.0 0.0
0.1709999999995714 0.0 0.0
0.1719999999995685 0.0 0.0
0.1729999999995655 0.0 0.0
0.1739999999995626 0.0 0.0
0.1749999999995597 0.0 0.0
0.1759999999995568 0.0 0.0
0.1769999999995539 0.0 0.0
0.177999999999551 0.0 0.0
0.178999999999548 0.0 0.0
0.1799999999995451 0.0 0.0
0.1809999999995422 0.0 0.0
0.1819999999995393 0.0 0.0
0.1829999999995364 0.0 0.0
0.1839999999995335 0.0 0.0
0.1849999999995305 0.0 0.0
0.1859999999995277 0.0 0.0
0.1869999999995247 0.0 0.0
0.1879999999995218 0.0 0.0
0.1889999999995189 0.0 0.0
0.189999999999516 0.0 0.0
0.1909999999995131 0.0 0.0
0.1919999999995101 0.0 0.0
0.1929999999995072 0.0 0.0
0.1939999999995043 0.0 0.0
0.1949999999995014 0.0 0.0
0.1959999999994985 0.0 0.0
0.1969999999994956 0.0 0.0
0.1979999999994927 0.0 0.0
0.1989999999994897 0.0 0.0
0.1999999999994868 0.0 0.0
0.2009999999994839 0.0 0.0
0.201999999999481 0.0 0.0
0.2029999999994781 0.0 0.0
0.2039999999994752 0.0 0.0
0.2049999999994722 0.0 0.0
0.2059999999994693 0.0 0.0
0.2069999999994664 0.0 0.0
0.2079999999994635 0.0 0.0
0.2089999999994606 0.0 0.0
0.2099999999994577 0.0 0.0
0.2109999999994548 0.0 0.0
0.2119999999994518 0.0 0.0
0.2129999999994489 0.0 0.0
0.213999999999446 0.0 0.0
0.2149999999994431 0.0 0.0
0.2159999999994402 0.0 0.0
0.2169999999994373 0.0 0.0
0.2179999999994343 0.0 0.0
0.2189999999994314 0.0 0.0
0.2199999999994285 0.0 0.0
0.2209999999994256 0.0 0.0
0.2219999999994227 0.0 0.0
0.2229999999994198 0.0 0.0
0.2239999999994168 0.0 0.0
0.2249999999994139 0.0 0.0
0.225999999999411 0.0 0.0
0.2269999999994081 0.0 0.0
0.2279999999994052 0.0 0.0
0.2289999999994023 0.0 0.0
0.2299999999993994 0.0 0.0
0.2309999999993964 0.0 0.0
0.2319999999993935 0.0 0.0
0.2329999999993906 0.0 0.0
0.2339999999993877 0.0 0.0
0.2349999999993848 0.0 0.0
0.2359999999993818 0.0 0.0
0.236999999999379 0.0 0.0
0.237999999999376 0.0 0.0
0.2389999999993731 0.0 0.0
0.2399999999993702 0.0 0.0
0.2409999999993673 0.0 0.0
0.2419999999993644 0.0 0.0
0.2429999999993615 0.0 0.0
0.2439999999993585 0.0 0.0
0.2449999999993556 0.0 0.0
0.2459999999993527 0.0 0.0
0.246999999999351 0.0 0.0
0.2479999999993495 0.0 0.0
0.248999999999348 0.0 0.0
0.2499999999993464 0.0 0.0
0.2509999999993477 0.0 0.0
0.2519999999993489 0.0 0.0
0.2529999999993502 0.0 0.0
0.2539999999993516 0.0 0.0
0.2549999999993542 0.0 0.0
0.2559999999993569 0.0 0.0
0.2569999999993595 0.0 0.0
0.2579999999993621 0.0 0.0
0.2589999999993647 0.0 0.0
0.2599999999993673 0.0 0.0
0.26099999999937 0.0 0.0
0.2619999999993726 0.0 0.0
0.2629999999993753 0.0 0.0
0.2639999999993779 0.0 0.0
0.2649999999993806 0.0 0.0
0.2659999999993832 0.0 0.0
0.2669999999993858 0.0 0.0
0.2679999999993884 0.0 0.0
0.2689999999993911 0.0 0.0
0.2699999999993937 0.0 0.0
0.2709999999993963 0.0 0.0
0.271999999999399 0.0 0.0
0.2729999999994017 0.0 0.0
0.2739999999994043 0.0 0.0
0.2749999999994069 0.0 0.0
0.2759999999994096 0.0 0.0
0.2769999999994122 0.0 0.0
0.2779999999994148 0.0 0.0
0.2789999999994174 0.0 0.0
0.2799999999994201 0.0 0.0
0.2809999999994228 0.0 0.0
0.2819999999994254 0.0 0.0
0.282999999999428 0.0 0.0
0.2839999999994306 0.0 0.0
0.2849999999994333 0.0 0.0
0.2859999999994359 0.0 0.0
0.2869999999994385 0.0 0.0
0.2879999999994411 0.0 0.0
0.2889999999994439 0.0 0.0
0.2899999999994465 0.0 0.0
0.2909999999994491 0.0 0.0
0.2919999999994517 0.0 0.0
0.2929999999994544 0.0 0.0
0.293999999999457 0.0 0.0
0.2949999999994596 0.0 0.0
0.2959999999994622 0.0 0.0
0.2969999999994649 0.0 0.0
0.2979999999994676 0.0 0.0
0.2989999999994702 0.0 0.0
0.2999999999994728 0.0 0.0
0.3009999999994754 0.0 0.0
0.3019999999994781 0.0 0.0
0.3029999999994807 0.0 0.0
0.3039999999994834 0.0 0.0
0.304999999999486 0.0 0.0
0.3059999999994886 0.0 0.0
0.3069999999994913 0.0 0.0
0.3079999999994939 0.0 0.0
0.3089999999994965 0.0 0.0
0.3099999999994992 0.0 0.0
0.3109999999995018 0.0 0.0
0.3119999999995045 0.0 0.0
0.3129999999995071 0.0 0.0
0.3139999999995097 0.0 0.0
0.3149999999995123 0.0 0.0
0.315999999999515 0.0 0.0
0.3169999999995176 0.0 0.0
0.3179999999995203 0.0 0.0
0.3189999999995229 0.0 0.0
0.3199999999995256 0.0 0.0
0.3209999999995282 0.0 0.0
0.3219999999995308 0.0 0.0
0.3229999999995334 0.0 0.0
0.323999999999536 0.0 0.0
0.3249999999995387 0.0 0.0
0.3259999999995414 0.0 0.0
0.326999999999544 0.0 0.0
0.3279999999995466 0.0 0.0
0.3289999999995493 0.0 0.0
0.3299999999995519 0.0 0.0
0.3309999999995545 0.0 0.0
0.3319999999995571 0.0 0.0
0.3329999999995598 0.0 0.0
0.3339999999995625 0.0 0.0
0.3349999999995651 0.0 0.0
0.3359999999995677 0.0 0.0
0.3369999999995703 0.0 0.0
0.337999999999573 0.0 0.0
0.3389999999995756 0.0 0.0
0.3399999999995783 0.0 0.0
0.3409999999995809 0.0 0.0
0.3419999999995835 0.0 0.0
0.3429999999995862 0.0 0.0
0.3439999999995888 0.0 0.0
0.3449999999995914 0.0 0.0
0.345999999999594 0.0 0.0
0.3469999999995967 0.0 0.0
0.3479999999995994 0.0 0.0
0.348999999999602 0.0 0.0
0.3499999999996046 0.0 0.0
0.3509999999996072 0.0 0.0
0.3519999999996099 0.0 0.0
0.3529999999996125 0.0 0.0
0.3539999999996151 0.0 0.0
0.3549999999996178 0.0 0.0
0.3559999999996205 0.0 0.0
0.3569999999996231 0.0 0.0
0.3579999999996257 0.0 0.0
0.3589999999996283 0.0 0.0
0.359999999999631 0.0 0.0
0.3609999999996336 0.0 0.0
0.3619999999996362 0.0 0.0
[...]
POINT_DATA 7930
SCALARS Disp float 2
LOOKUP_TABLE default
0.0 0.0007499247786479366
0.0 0.1
0.0 0.1
0.0 0.0
4.863885465636542e-13 0.0
-6.887447910613334e-06 0.0007496514391093019
-1.3640475739721361e-05 0.0007484311785815517
-2.0294609596070965e-05 0.000746956419568987
-2.7284166057432584e-05 0.0007455843887160737
-3.4310874425355544e-05 0.0007430753406168777
-4.105703651715169e-05 0.0007385173130167063
-4.735216854222128e-05 0.0007342662213523118
-5.401788826676744e-05 0.0007313767768148361
-6.137722048597623e-05 0.0007268288322612692
-6.842322066891399e-05 0.0007198773515103321
-7.488280570369619e-05 0.0007123804870137986
-8.163867408077324e-05 0.0007066686955106332
-8.91566418966366e-05 0.0006998114962760063
-9.607301942771657e-05 0.0006894915966669526
-0.00010220655196349474 0.0006787731657124013
-0.00010861844612681448 0.0006704151242460802
-0.00011617799208583251 0.0006609837930197072
-0.00012358318684793247 0.0006473787979237603
-0.00012969160087047846 0.0006328441317029593
-0.0001361101158320481 0.0006210967248520146
-0.00014377215113363186 0.0006080944110960461
-0.0001513198378097461 0.0005900341935849154
-0.0001573876197273741 0.0005704848931371159
-0.00016333433461595943 0.0005537333335816215
-0.0001707704963152909 0.0005364908127076994
-0.00017830565902731703 0.0005128427072095986
-0.00018423623314084973 0.00048707414288982377
-0.00019033034096869574 0.00046341620515874673
-0.00019751679304101682 0.0004382200394419379
-0.00020558318507300026 0.0004052492241976112
-0.0002114411316786951 0.0003677195006515624
-0.00021775615441264504 0.000329538744080259
-0.00022491729611622867 0.0002859069079869593
-0.00022978337126661996 0.0002271740235749657
-0.00023092728561178896 0.0001472156551789587
-0.0002100896673903268 0.0
-0.0001873082721372169 0.0
-0.00016782476338021845 0.0
-0.0001549642720460966 0.0
-0.00014442073531877262 0.0
-0.00013595122089600525 0.0
-0.00012886328001507626 0.0
-0.0001224547147500416 0.0
-0.0001166658412590484 0.0
-0.00011153725789693491 0.0
-0.00010686020937229151 0.0
-0.00010263412222444865 0.0
-9.87300570326065e-05 0.0
-9.510026701198137e-05 0.0
-9.170465092625107e-05 0.0
-8.853956943164767e-05 0.0
-8.559196848150405e-05 0.0
-8.282567037263386e-05 0.0
-8.012185841052329e-05 0.0
-7.762135487633446e-05 0.0
-7.525989465725558e-05 0.0
-7.301901336950414e-05 0.0
-7.087541110093518e-05 0.0
-6.883658124727843e-05 0.0
-6.688507522892527e-05 0.0
-6.500442420313397e-05 0.0
-6.320254664252481e-05 0.0
-6.147104838553947e-05 0.0
-5.979973839159235e-05 0.0
-5.819307644418581e-05 0.0
-5.664785845583411e-05 0.0
-5.515360524720231e-05 0.0
-5.370966938226444e-05 0.0
-5.2318302883195774e-05 0.0
-5.097645879826382e-05 0.0
-4.9674900075733386e-05 0.0
-4.841559353243551e-05 0.0
-4.719558121373132e-05 0.0
-4.600831875401327e-05 0.0
-4.4857884973775035e-05 0.0
-4.374229941645497e-05 0.0
-4.2658373822979174e-05 0.0
-4.160493496345749e-05 0.0
-4.05767866019654e-05 0.0
-3.957686199226446e-05 0.0
-3.8603387603304544e-05 0.0
-3.765329714771027e-05 0.0
-3.6726512854348325e-05 0.0
-3.5825153219617e-05 0.0
-3.494328643496334e-05 0.0
-3.408198784552184e-05 0.0
-3.324340140063194e-05 0.0
-3.242596823911881e-05 0.0
-3.163009527335614e-05 0.0
-3.085299314688862e-05 0.0
-3.009593735414979e-05 0.0
-2.9357889400261058e-05 0.0
-2.863778932727352e-05 0.0
-2.7935757961757295e-05 0.0
-2.7252212373294765e-05 0.0
-2.6585643596298292e-05 0.0
-2.5933735705773586e-05 0.0
-2.529751518869752e-05 0.0
-2.467462959143241e-05 0.0
-2.4066264914751644e-05 0.0
-2.3470723198836666e-05 0.0
-2.2888390568448438e-05 0.0
-2.2318080499920856e-05 0.0
-2.1759150363048082e-05 0.0
-2.1210788832883568e-05 0.0
-2.0670065708382173e-05 0.0
-2.0140209675649913e-05 0.0
-1.9622023533717817e-05 0.0
-1.9106962043080422e-05 0.0
-1.8602392833806445e-05 0.0
-1.8106119236429716e-05 0.0
-1.761637647229475e-05 0.0
-1.7134515441887406e-05 0.0
-1.6660249364069852e-05 0.0
-1.6192660484372327e-05 0.0
-1.573281772276769e-05 0.0
-1.5281000291366704e-05 0.0
-1.483703699426754e-05 0.0
-1.4402522978575231e-05 0.0
-1.3972366126517888e-05 0.0
-1.3551559492792443e-05 0.0
-1.3138177056836046e-05 0.0
-1.2733945712237925e-05 0.0
-1.2336483478619861e-05 0.0
-1.194735919880346e-05 0.0
-1.1566486934875851e-05 0.0
-1.119396727812345e-05 0.0
-1.0828976114173648e-05 0.0
-1.0472017850529988e-05 0.0
-1.0122653586440397e-05 0.0
-9.780970500253167e-06 0.0
-9.446533961422843e-06 0.0
-9.119797598598372e-06 0.0
-8.800699969959931e-06 0.0
-8.486394465028794e-06 0.0
-8.179124514002305e-06 0.0
-7.877747106033617e-06 0.0
-7.582096993849649e-06 0.0
-7.291611566854475e-06 0.0
-7.006166744924622e-06 0.0
-6.725693814423814e-06 0.0
-6.449787379972747e-06 0.0
-6.178175606350456e-06 0.0
-5.9102341181261605e-06 0.0
-5.646196872974406e-06 0.0
-5.385915902156055e-06 0.0
-5.128961765165894e-06 0.0
-4.875287358363823e-06 0.0
-4.6246877466070695e-06 0.0
-4.3770542163777936e-06 0.0
-4.132383030613405e-06 0.0
-3.89072033237354e-06 0.0
-3.6518218348354063e-06 0.0
-3.4156790902774515e-06 0.0
-3.1827352230245763e-06 0.0
-2.9530370220044746e-06 0.0
-2.7260478178492127e-06 0.0
-2.50246975713634e-06 0.0
-2.282162204511187e-06 0.0
-2.0654104216175537e-06 0.0
-1.8524043089306251e-06 0.0
-1.6426973189076436e-06 0.0
-1.4367013276977351e-06 0.0
-1.2350235197266085e-06 0.0
-1.037698750444338e-06 0.0
-8.446064092438515e-07 0.0
-6.56017699196094e-07 0.0
-4.7177561911650445e-07 0.0
-2.9218300302980164e-07 0.0
-1.1748499857475895e-07 0.0
5.250250134998271e-08 0.0
2.17284793305199e-07 0.0
3.7697606336536103e-07 0.0
5.3166808626413e-07 0.0
6.811659374905698e-07 0.0
8.25284456945378e-07 0.0
9.640716606216276e-07 0.0
1.097890600912438e-06 0.0
1.2265108444842013e-06 0.0
1.3497703874974256e-06 0.0
1.4681264291092588e-06 0.0
1.5813220346133396e-06 0.0
1.6893032449058911e-06 0.0
1.7926794909975932e-06 0.0
1.8914816267745353e-06 0.0
1.985404435808962e-06 0.0
2.0748435771983455e-06 0.0
2.1597013196423234e-06 0.0
2.2400559218811976e-06 0.0
2.3164855081897702e-06 0.0
2.3888482250757504e-06 0.0
2.4572349761629414e-06 0.0
2.5218873429288504e-06 0.0
2.5829278128137415e-06 0.0
2.640161143560123e-06 0.0
2.6940985248556616e-06 0.0
2.744979277146294e-06 0.0
2.792533284538106e-06 0.0
2.8372904124716363e-06 0.0
2.8790621058835665e-06 0.0
2.9181647688572443e-06 0.0
2.9548059023192786e-06 0.0
2.9886685070753157e-06 0.0
3.0200044282738295e-06 0.0
3.0490402450036517e-06 0.0
3.0759579643504004e-06 0.0
3.100644288857873e-06 0.0
3.1233147091311628e-06 0.0
3.143974944265119e-06 0.0
3.162607353096348e-06 0.0
3.179246305287207e-06 0.0
3.194137280662188e-06 0.0
3.207220505288503e-06 0.0
3.21840121347895e-06 0.0
3.227946798900731e-06 0.0
3.2357973898437365e-06 0.0
3.2419890088734536e-06 0.0
3.2464691200840523e-06 0.0
3.249256593822331e-06 0.0
3.2504767423292597e-06 0.0
3.2500112939807117e-06 0.0
3.2479624169664016e-06 0.0
3.2443722893457724e-06 0.0
3.2391999127657906e-06 0.0
3.2324510229448445e-06 0.0
3.2240513636616823e-06 0.0
3.2141204459838027e-06 0.0
3.2026463813293256e-06 0.0
3.1896379715276114e-06 0.0
3.175213169608232e-06 0.0
3.159187791905815e-06 0.0
3.1416195685856584e-06 0.0
3.122631740188372e-06 0.0
3.102131823129126e-06 0.0
3.080152581406649e-06 0.0
3.0567975459357427e-06 0.0
3.0320570143580733e-06 0.0
3.0058916142127723e-06 0.0
2.9783897285646006e-06 0.0
2.949607239669822e-06 0.0
2.9195167049905108e-06 0.0
2.888168996035762e-06 0.0
2.85569829965109e-06 0.0
2.8220395645317904e-06 0.0
2.787229833998831e-06 0.0
2.7513926971865545e-06 0.0
2.7144841943273554e-06 0.0
2.67661904153302e-06 0.0
2.637828399249455e-06 0.0
2.5981510337807023e-06 0.0
2.557680997369854e-06 0.0
2.516445740299413e-06 0.0
2.474477809473106e-06 0.0
2.4318970427541266e-06 0.0
2.3887300748182014e-06 0.0
2.3450346847922126e-06 0.0
2.3008531071723798e-06 0.0
2.2562535969734837e-06 0.0
2.2112970026128303e-06 0.0
2.1660470590115644e-06 0.0
2.120557737441595e-06 0.0
2.074888498629211e-06 0.0
2.029090062321355e-06 0.0
1.983222098774447e-06 0.0
1.937340027408537e-06 0.0
1.8914948172240264e-06 0.0
1.8457403772304747e-06 0.0
1.8001209762029834e-06 0.0
1.7547169585606166e-06 0.0
1.7095019084926588e-06 0.0
1.6645913400548029e-06 0.0
1.6199964144613992e-06 0.0
1.5757699539306355e-06 0.0
1.5319488834389855e-06 0.0
1.488565783767922e-06 0.0
1.4456724871205614e-06 0.0
1.4032935168577076e-06 0.0
1.3614509196012487e-06 0.0
1.3201875365897056e-06 0.0
1.2795039352205496e-06 0.0
1.2394699692632089e-06 0.0
1.2001126798835004e-06 0.0
1.1614022238654463e-06 0.0
1.1233890198135567e-06 0.0
1.0860742019211756e-06 0.0
1.0494849240999419e-06 0.0
1.0136527097782012e-06 0.0
9.785625122949367e-07 0.0
9.442414323503949e-07 0.0
9.106917232970192e-07 0.0
8.779050676874213e-07 0.0
8.45875301952774e-07 0.0
8.146792736132371e-07 0.0
7.842605373206338e-07 0.0
7.546244588940656e-07 0.0
7.257735599881516e-07 0.0
6.977108846546689e-07 0.0
6.704343132701008e-07 0.0
6.439330997289824e-07 0.0
6.182115011363489e-07 0.0
5.932453188518342e-07 0.0
5.690494594565869e-07 0.0
5.456016965465684e-07 0.0
5.228969885802645e-07 0.0
5.009283312221596e-07 0.0
4.796778727450377e-07 0.0
4.591321196744962e-07 0.0
4.3927897816538376e-07 0.0
4.200970375056767e-07 0.0
4.015971234589934e-07 0.0
3.8376480907196087e-07 0.0
3.665711470308569e-07 0.0
3.4999622838196343e-07 0.0
3.3403851014440073e-07 0.0
3.186751673153281e-07 0.0
3.038964448904002e-07 0.0
2.8970885114243016e-07 0.0
2.760852139297366e-07 0.0
2.6300016839161143e-07 0.0
2.50412350969139e-07 0.0
2.3834190650968967e-07 0.0
2.2677764462260807e-07 0.0
2.156710597619747e-07 0.0
2.0503657720499977e-07 0.0
1.9486963002562442e-07 0.0
1.851169761282863e-07 0.0
1.7580555093169488e-07 0.0
1.6689901272796503e-07 0.0
1.583864483511864e-07 0.0
1.5026825100665926e-07 0.0
1.4250628497693497e-07 0.0
1.3509819960822656e-07 0.0
1.280300467346744e-07 0.0
1.21293459894831e-07 0.0
1.1486988357434941e-07 0.0
1.0874788412997479e-07 0.0
1.0291465624673877e-07 0.0
9.735779622720311e-08 0.0
9.207515553885699e-08 0.0
8.704975008796363e-08 0.0
8.227139756694696e-08 0.0
7.772732878154383e-08 0.0
7.340986180818851e-08 0.0
6.931221895282587e-08 0.0
6.543264719535144e-08 0.0
6.173946802174946e-08 0.0
5.8242434198239875e-08 0.0
5.4921472146977075e-08 0.0
5.1766662776065696e-08 0.0
4.878547375567886e-08 0.0
4.596970146772526e-08 0.0
4.3294102135278616e-08 0.0
4.07650859134651e-08 0.0
3.8369097860378195e-08 0.0
3.610409655519339e-08 0.0
3.397047942566114e-08 0.0
3.1945702888792947e-08 0.0
3.0034743369465294e-08 0.0
2.82291817495217e-08 0.0
2.652030180052937e-08 0.0
2.4910824606623577e-08 0.0
2.3394416987814698e-08 0.0
2.196167986007994e-08 0.0
2.0611621416579073e-08 0.0
1.9339336448667856e-08 0.0
1.814009886523968e-08 0.0
1.7011303990857345e-08 0.0
1.594857287253273e-08 0.0
1.4947667078930165e-08 0.0
1.4005693687755515e-08 0.0
1.3118634579889415e-08 0.0
1.2285233681627302e-08 0.0
1.1502144920521361e-08 0.0
1.076602218756129e-08 0.0
1.0074647625823662e-08 0.0
9.425108402806802e-09 0.0
8.816011969184255e-09 0.0
8.243956685601095e-09 0.0
7.704938779875646e-09 0.0
7.20037918896135e-09 0.0
6.729029484087746e-09 0.0
6.285496812747153e-09 0.0
5.868352599855486e-09 0.0
5.4791364776658376e-09 0.0
5.115042420230345e-09 0.0
4.773308342709498e-09 0.0
4.45308199737719e-09 0.0
4.153475156333711e-09 0.0
3.872310418253163e-09 0.0
3.6099442008426606e-09 0.0
3.36533800944618e-09 0.0
3.1358185256477477e-09 0.0
2.921172994092094e-09 0.0
2.720745600199246e-09 0.0
2.5326822828903434e-09 0.0
2.357779496262557e-09 0.0
2.1945176762437716e-09 0.0
2.0419128733277896e-09 0.0
1.8997942904967133e-09 0.0
1.7672735984823398e-09 0.0
1.6432895587795849e-09 0.0
1.5276468790592433e-09 0.0
1.419883982279493e-09 0.0
1.3195130717829412e-09 0.0
1.2259320934428352e-09 0.0
1.1387350811953266e-09 0.0
1.0575215134858981e-09 0.0
9.819389844505001e-10 0.0
9.115376949346474e-10 0.0
8.460203898438835e-10 0.0
7.850016394618149e-10 0.0
7.2816913339984e-10 0.0
6.753564622236381e-10 0.0
6.262606484824675e-10 0.0
5.806067867749274e-10 0.0
5.38205981869325e-10 0.0
4.988076597953778e-10 0.0
4.6215649038029035e-10 0.0
4.2813545251702693e-10 0.0
3.965081040879015e-10 0.0
3.671480257441873e-10 0.0
3.3992570955867976e-10 0.0
3.1465841582145187e-10 0.0
2.9112667542867775e-10 0.0
2.693825177714488e-10 0.0
2.4920906454884637e-10 0.0
2.3052650121380493e-10 0.0
2.1317583358766325e-10 0.0
1.970893827260969e-10 0.0
1.821857065593907e-10 0.0
1.6837471815773926e-10 0.0
1.5557240797064275e-10 0.0
1.437042429027796e-10 0.0
1.327200169971833e-10 0.0
1.2256466830885944e-10 0.0
1.1316438206723592e-10 0.0
1.044660378205233e-10 0.0
9.642502208397546e-11 0.0
8.898833125349957e-11 0.0
8.20845172942353e-11 0.0
7.57196804281591e-11 0.0
6.984109231666048e-11 0.0
6.441111739719456e-11 0.0
5.938764922535472e-11 0.0
5.4753368495396754e-11 0.0
5.0453280843589205e-11 0.0
4.6498448327841924e-11 0.0
4.28444799392905e-11 0.0
3.9468451766902324e-11 0.0
3.635586948300715e-11 0.0
3.348169747642625e-11 0.0
3.082635398741582e-11 0.0
2.8376764628780686e-11 0.0
2.611672667700621e-11 0.0
2.4032148154999174e-11 0.0
2.211720010778786e-11 0.0
2.0342630869041736e-11 0.0
1.8710906128563944e-11 0.0
1.7206381027383345e-11 0.0
1.5821216730635343e-11 0.0
1.4546918803712972e-11 0.0
1.3373141088956916e-11 0.0
1.229015109419487e-11 0.0
1.1290125901679799e-11 0.0
1.0371907314965054e-11 0.0
9.530857022123156e-12 0.0
8.757705016625223e-12 0.0
8.041405734089904e-12 0.0
7.383651197546777e-12 0.0
6.7777231326774434e-12 0.0
6.220843611181959e-12 0.0
5.708473866813134e-12 0.0
5.2379771348572664e-12 0.0
4.805570908988268e-12 0.0
4.406964530990893e-12 0.0
4.04185588519709e-12 0.0
3.706766141227252e-12 0.0
3.399587006471438e-12 0.0
3.116776059585188e-12 0.0
2.856864646820592e-12 0.0
2.6180265229870672e-12 0.0
2.399048199292318e-12 0.0
2.1990720510441263e-12 0.0
2.0142206727918206e-12 0.0
1.8449291664515923e-12 0.0
1.689725900345506e-12 0.0
1.5471532630608852e-12 0.0
1.4170446263445173e-12 0.0
1.2971463810987305e-12 0.0
1.1870807728185879e-12 0.0
1.0864466465806762e-12 0.0
9.94281057849837e-13 0.0
9.095720260726912e-13 0.0
8.320784284152968e-13 0.0
7.611035284856308e-13 0.0
6.962176193044088e-13 0.0
6.366805284911276e-13 0.0
5.819022068827411e-13 0.0
5.32046873503985e-13 0.0
4.430804497682244e-13 0.0
4.003594971608965e-13 0.0
3.584436349046621e-13 0.0
3.177411628826103e-13 0.0
2.7868728300833354e-13 0.0
2.4155499881098555e-13 0.0
2.0668153602018437e-13 0.0
1.7440616705767588e-13 0.0
1.449337595152319e-13 0.0
1.1843387610609938e-13 0.0
9.506856502623682e-14 0.0
7.472537285748947e-14 0.0
5.751508419128739e-14 0.0
4.316771221834103e-14 0.0
3.1493651858162575e-14 0.0
2.2379766198212365e-14 0.0
1.5442068998084635e-14 0.0
1.0230850949957994e-14 0.0
6.582243708074274e-15 0.0
4.034071986710241e-15 0.0
2.358571152746224e-15 0.0
1.3073475432023724e-15 0.0
7.020907357107423e-16 0.0
3.458218866911619e-16 0.0
1.6734091126908711e-16 0.0
7.724880618893512e-17 0.0
3.8220991558793015e-17 0.0
2.290221652445321e-17 0.0
1.6467834787925895e-17 0.0
1.3507170820564643e-17 0.0
1.1674113431750595e-17 0.0
9.97223594806036e-18 0.0
1.1580436420356409e-17 0.0
1.606135651010344e-17 0.0
1.9748659303257878e-17 0.0
2.2041501113195533e-17 0.0
2.191938428273243e-17 0.0
2.3214238507271857e-17 0.0
2.182479270066315e-17 0.0
1.7723032790623985e-17 0.0
1.418683313880665e-17 0.0
8.84801473336707e-18 0.0
1.431895760152207e-17 0.0
3.984935846893539e-17 0.0
4.6597319400148254e-17 0.0
4.5425533303797527e-17 0.0
4.417954751026462e-17 0.0
4.065535474758866e-17 0.0
3.589545551523859e-17 0.0
2.7068102023528812e-17 0.0
5.317640390948266e-17 0.0
1.9849334739328813e-17 0.0
1.3528952139003433e-17 0.0
-4.6563523649125915e-18 0.0
2.5706311212121424e-17 0.0
3.9781959542823644e-17 0.0
4.3373362163311135e-17 0.0
4.2945562373030265e-17 0.0
5.982418349751592e-17 0.0
7.907418859035972e-17 0.0
6.112155818347179e-17 0.0
4.302156692985184e-17 0.0
9.31607463910449e-17 0.0
-4.110157020106858e-17 0.0
1.5229936787114673e-16 0.0
-3.2970582895392687e-17 0.0
3.453751451734928e-17 0.0
6.336374606022203e-17 0.0
-5.846647130585713e-17 0.0
1.3964456967760044e-16 0.0
-3.984846720900485e-17 0.0
2.3119253239471303e-17 0.0
9.001199840785201e-17 0.0
-7.378593383291816e-17 0.0
1.5380249798438976e-16 0.0
5.117100706141716e-17 0.0
-1.23108052206534e-16 0.0
5.1609506958612167e-17 0.0
-4.0708429079170645e-17 0.0
0.0 0.009234165287258182
0.0 0.022109785930449818
0.0 0.040062852071527315
0.0 0.06509563926323
-6.669921935932914e-17 0.1
-9.431396397899764e-17 0.1
1.0651509042022037e-15 0.1
-1.2839254514323789e-15 0.1
0.0 0.09234095951662832
0.0 0.08526779443702841
0.0 0.07873568783498607
0.0 0.07270325358169798
0.0 0.06713226878994304
0.0 0.06198743331091768
0.0 0.057236152337949625
0.0 0.05284831692952227
0.0 0.048796128449941946
0.0 0.045053910657843775
0.0 0.04159795282712595
0.0 0.03840635724257103
0.0 0.0354589017182235
0.0 0.03273691087332695
0.0 0.030223137736028874
0.0 0.027901654838203893
0.0 0.02575775300195921
0.0 0.023777848352114335
0.0 0.021949395807803307
0.0 0.02026081025589438
0.0 0.01870139222365385
0.0 0.017261261595035528
0.0 0.01593129333668018
0.0 0.014703060372940589
0.0 0.013568780782904707
0.0 0.012521267482861215
0.0 0.011553883413523815
0.0 0.010660499143843233
0.0 0.009835453922831458
0.0 0.009073520329637723
0.0 0.008369870608788863
0.0 0.007720046303381425
0.0 0.007119930012360099
0.0 0.00656571947350286
0.0 0.006053903138573127
0.0 0.005581237991573461
0.0 0.005144729225850603
0.0 0.00474161105835688
0.0 0.004369329303936852
0.0 0.004025525799467189
0.0 0.003708035040594526
0.0 0.0034149987241820176
0.0 0.0031450701328360024
0.0 0.0028974437497981172
0.0 0.0026709415568654197
0.0 0.002463446426365423
0.0 0.0022730005573943636
0.0 0.002099277589310163
0.0 0.0019412371815966827
0.0 0.0017975375672528648
0.0 0.0016670843476309638
0.0 0.0015490210567506465
0.0 0.0014424027464328918
0.0 0.001346313094429265
0.0 0.0012597995406107405
0.0 0.0011825998926397944
0.0 0.0011140646946082335
0.0 0.0010536883850645758
0.0 0.001000888971473113
0.0 0.0009550855312306786
0.0 0.0009156904132033309
0.0 0.0008824575363067044
0.0 0.0008550053201943641
0.0 0.0008323608950163025
0.0 0.0008147582570752431
0.0 0.0008002531116641455
0.0 0.0007894275534089698
0.0 0.0007816514702174565
0.0 0.0007761715953990881
0.0 0.0007725727701888006
0.0 0.000769958371926706
0.0 0.0007683276696037166
0.0 0.0007671080078405351
0.0 0.0007661636257248189
0.0 0.0007651829013793526
0.0 0.0007642242442223065
0.0 0.000763097974131879
0.0 0.0007617737134179766
0.0 0.0007602283623736144
0.0 0.0007582976869518353
0.0 0.0007562814579149556
0.0 0.0007542033458647224
0.0 0.0007521578507575236
4.240159911193218e-17 0.004927245132661909
1.3669853640240857e-09 0.002773875882522706
1.2229060415002038e-05 0.0015432528836511789
3.520543147381571e-05 0.0009422157350522098
2.561876521244116e-07 0.0014043071404234834
3.0096497758420154e-16 0.0022597849426051375
5.259063441650585e-05 0.0006255548976100403
5.543749634652443e-11 0.0012867734936150897
1.1618132682376274e-05 0.0007813113731121282
3.290434086891244e-06 0.000770570552314582
2.7554974076078706e-07 0.0007098069109254932
4.5522585002363665e-09 0.0006767776374268922
1.4978447689895344e-16 0.01497373646140802
2.4472217585974718e-11 0.0006657294903000177
8.91564910016491e-06 0.0004580317954870092
3.7544938937639343e-06 0.0004375782275667633
2.942100925952818e-16 0.0011704180815625275
6.325422342507414e-05 0.0005825351915945377
4.350446893822968e-06 0.0003891538635327711
4.077938325051897e-06 0.00042289413654585654
2.269407629363216e-06 0.00040062615149223625
6.663300872692755e-07 0.0003773334544547703
1.1368071123748825e-07 0.0003780024617125827
9.290194622372852e-14 0.0006414990044063153
1.3868682240841707e-08 0.0003524713556660288
8.670086639948467e-10 0.00039119173707465716
-1.6823370580486512e-16 0.04847397115433136
9.379081390456682e-06 0.00031885338330338964
-1.3285345522052375e-05 0.0002555828846819719
6.67269257815749e-11 0.00033400753588937843
2.382639041183498e-12 0.00039557321765032547
7.677576390223412e-17 0.007989497114757245
-1.222220336470146e-17 0.0037118346624275605