# vtk DataFile Version 3.0
Some data
ASCII
DATASET UNSTRUCTURED_GRID
POINTS 7930 float
0.0 0.0 0.0
0.0 10.0 0.0
10.0 10.0 0.0
10.0 0.0 0.0
0.5 0.0 0.0
0.0009999999999981016 0.0 0.0
0.001999999999996203 0.0 0.0
0.002999999999994305 0.0 0.0
0.003999999999992409 0.0 0.0
0.004999999999990531 0.0 0.0
0.005999999999988653 0.0 0.0
0.006999999999986775 0.0 0.0
0.007999999999984898 0.0 0.0
0.008999999999983018 0.0 0.0
0.009999999999981142 0.0 0.0
0.01099999999997926 0.0 0.0
0.01199999999997736 0.0 0.0
0.0129999999999754 0.0 0.0
0.01399999999997343 0.0 0.0
0.01499999999997147 0.0 0.0
0.01599999999996944 0.0 0.0
0.0169999999999673 0.0 0.0
0.01799999999996516 0.0 0.0
0.01899999999996302 0.0 0.0
0.01999999999996084 0.0 0.0
0.02099999999995862 0.0 0.0
0.02199999999995639 0.0 0.0
0.02299999999995417 0.0 0.0
0.02399999999995195 0.0 0.0
0.02499999999994972 0.0 0.0
0.0259999999999475 0.0 0.0
0.02699999999994527 0.0 0.0
0.02799999999994315 0.0 0.0
0.0289999999999411 0.0 0.0
0.02999999999993905 0.0 0.0
0.030999999999937 0.0 0.0
0.03199999999993521 0.0 0.0
0.0329999999999335 0.0 0.0
0.0339999999999318 0.0 0.0
0.03499999999993009 0.0 0.0
0.03599999999992853 0.0 0.0
0.036999999999927 0.0 0.0
0.03799999999992547 0.0 0.0
0.03899999999992394 0.0 0.0
0.03999999999992241 0.0 0.0
0.04099999999992088 0.0 0.0
0.04199999999991934 0.0 0.0
0.04299999999991782 0.0 0.0
0.04399999999991629 0.0 0.0
0.04499999999991475 0.0 0.0
0.04599999999991322 0.0 0.0
0.0469999999999117 0.0 0.0
0.04799999999991016 0.0 0.0
0.04899999999990863 0.0 0.0
0.0499999999999071 0.0 0.0
0.05099999999990557 0.0 0.0
0.05199999999990404 0.0 0.0
0.05299999999990251 0.0 0.0
0.05399999999990097 0.0 0.0
0.05499999999989943 0.0 0.0
0.05599999999989791 0.0 0.0
0.05699999999989638 0.0 0.0
0.05799999999989484 0.0 0.0
0.05899999999989317 0.0 0.0
0.05999999999989129 0.0 0.0
0.06099999999988941 0.0 0.0
0.06199999999988753 0.0 0.0
0.06299999999988531 0.0 0.0
0.06399999999988273 0.0 0.0
0.06499999999988015 0.0 0.0
0.06599999999987759 0.0 0.0
0.0669999999998748 0.0 0.0
0.06799999999987189 0.0 0.0
0.06899999999986897 0.0 0.0
0.06999999999986604 0.0 0.0
0.07099999999986313 0.0 0.0
0.0719999999998602 0.0 0.0
0.07299999999985729 0.0 0.0
0.07399999999985438 0.0 0.0
0.07499999999985145 0.0 0.0
0.07599999999984854 0.0 0.0
0.07699999999984562 0.0 0.0
0.0779999999998427 0.0 0.0
0.07899999999983978 0.0 0.0
0.07999999999983685 0.0 0.0
0.08099999999983394 0.0 0.0
0.08199999999983103 0.0 0.0
0.0829999999998281 0.0 0.0
0.08399999999982519 0.0 0.0
0.08499999999982226 0.0 0.0
0.08599999999981935 0.0 0.0
0.08699999999981643 0.0 0.0
0.0879999999998135 0.0 0.0
0.08899999999981059 0.0 0.0
0.08999999999980766 0.0 0.0
0.09099999999980475 0.0 0.0
0.09199999999980184 0.0 0.0
0.09299999999979891 0.0 0.0
0.093999999999796 0.0 0.0
0.09499999999979307 0.0 0.0
0.09599999999979016 0.0 0.0
0.09699999999978724 0.0 0.0
0.09799999999978432 0.0 0.0
0.0989999999997814 0.0 0.0
0.09999999999977847 0.0 0.0
0.1009999999997756 0.0 0.0
0.1019999999997726 0.0 0.0
0.1029999999997697 0.0 0.0
0.1039999999997668 0.0 0.0
0.1049999999997639 0.0 0.0
0.105999999999761 0.0 0.0
0.106999999999758 0.0 0.0
0.1079999999997551 0.0 0.0
0.1089999999997522 0.0 0.0
0.1099999999997493 0.0 0.0
0.1109999999997464 0.0 0.0
0.1119999999997434 0.0 0.0
0.1129999999997405 0.0 0.0
0.1139999999997376 0.0 0.0
0.1149999999997347 0.0 0.0
0.1159999999997318 0.0 0.0
0.1169999999997288 0.0 0.0
0.1179999999997259 0.0 0.0
0.118999999999723 0.0 0.0
0.1199999999997201 0.0 0.0
0.1209999999997172 0.0 0.0
0.1219999999997143 0.0 0.0
0.1229999999997113 0.0 0.0
0.1239999999997084 0.0 0.0
0.1249999999997055 0.0 0.0
0.1259999999997026 0.0 0.0
0.1269999999996997 0.0 0.0
0.1279999999996967 0.0 0.0
0.1289999999996938 0.0 0.0
0.1299999999996909 0.0 0.0
0.130999999999688 0.0 0.0
0.1319999999996851 0.0 0.0
0.1329999999996822 0.0 0.0
0.1339999999996792 0.0 0.0
0.1349999999996764 0.0 0.0
0.1359999999996734 0.0 0.0
0.1369999999996705 0.0 0.0
0.1379999999996676 0.0 0.0
0.1389999999996647 0.0 0.0
0.1399999999996618 0.0 0.0
0.1409999999996588 0.0 0.0
0.1419999999996559 0.0 0.0
0.142999999999653 0.0 0.0
0.1439999999996501 0.0 0.0
0.1449999999996472 0.0 0.0
0.1459999999996442 0.0 0.0
0.1469999999996414 0.0 0.0
0.1479999999996384 0.0 0.0
0.1489999999996355 0.0 0.0
0.1499999999996326 0.0 0.0
0.1509999999996297 0.0 0.0
0.1519999999996268 0.0 0.0
0.1529999999996239 0.0 0.0
0.1539999999996209 0.0 0.0
0.154999999999618 0.0 0.0
0.1559999999996151 0.0 0.0
0.1569999999996122 0.0 0.0
0.1579999999996093 0.0 0.0
0.1589999999996064 0.0 0.0
0.1599999999996035 0.0 0.0
0.1609999999996005 0.0 0.0
0.1619999999995976 0.0 0.0
0.1629999999995947 0.0 0.0
0.1639999999995918 0.0 0.0
0.1649999999995889 0.0 0.0
0.165999999999586 0.0 0.0
0.1669999999995831 0.0 0.0
0.1679999999995801 0.0 0.0
0.1689999999995772 0.0 0.0
0.1699999999995743 0.0 0.0
0.1709999999995714 0.0 0.0
0.1719999999995685 0.0 0.0
0.1729999999995655 0.0 0.0
0.1739999999995626 0.0 0.0
0.1749999999995597 0.0 0.0
0.1759999999995568 0.0 0.0
0.1769999999995539 0.0 0.0
0.177999999999551 0.0 0.0
0.178999999999548 0.0 0.0
0.1799999999995451 0.0 0.0
0.1809999999995422 0.0 0.0
0.1819999999995393 0.0 0.0
0.1829999999995364 0.0 0.0
0.1839999999995335 0.0 0.0
0.1849999999995305 0.0 0.0
0.1859999999995277 0.0 0.0
0.1869999999995247 0.0 0.0
0.1879999999995218 0.0 0.0
0.1889999999995189 0.0 0.0
0.189999999999516 0.0 0.0
0.1909999999995131 0.0 0.0
0.1919999999995101 0.0 0.0
0.1929999999995072 0.0 0.0
0.1939999999995043 0.0 0.0
0.1949999999995014 0.0 0.0
0.1959999999994985 0.0 0.0
0.1969999999994956 0.0 0.0
0.1979999999994927 0.0 0.0
0.1989999999994897 0.0 0.0
0.1999999999994868 0.0 0.0
0.2009999999994839 0.0 0.0
0.201999999999481 0.0 0.0
0.2029999999994781 0.0 0.0
0.2039999999994752 0.0 0.0
0.2049999999994722 0.0 0.0
0.2059999999994693 0.0 0.0
0.2069999999994664 0.0 0.0
0.2079999999994635 0.0 0.0
0.2089999999994606 0.0 0.0
0.2099999999994577 0.0 0.0
0.2109999999994548 0.0 0.0
0.2119999999994518 0.0 0.0
0.2129999999994489 0.0 0.0
0.213999999999446 0.0 0.0
0.2149999999994431 0.0 0.0
0.2159999999994402 0.0 0.0
0.2169999999994373 0.0 0.0
0.2179999999994343 0.0 0.0
0.2189999999994314 0.0 0.0
0.2199999999994285 0.0 0.0
0.2209999999994256 0.0 0.0
0.2219999999994227 0.0 0.0
0.2229999999994198 0.0 0.0
0.2239999999994168 0.0 0.0
0.2249999999994139 0.0 0.0
0.225999999999411 0.0 0.0
0.2269999999994081 0.0 0.0
0.2279999999994052 0.0 0.0
0.2289999999994023 0.0 0.0
0.2299999999993994 0.0 0.0
0.2309999999993964 0.0 0.0
0.2319999999993935 0.0 0.0
0.2329999999993906 0.0 0.0
0.2339999999993877 0.0 0.0
0.2349999999993848 0.0 0.0
0.2359999999993818 0.0 0.0
0.236999999999379 0.0 0.0
0.237999999999376 0.0 0.0
0.2389999999993731 0.0 0.0
0.2399999999993702 0.0 0.0
0.2409999999993673 0.0 0.0
0.2419999999993644 0.0 0.0
0.2429999999993615 0.0 0.0
0.2439999999993585 0.0 0.0
0.2449999999993556 0.0 0.0
0.2459999999993527 0.0 0.0
0.246999999999351 0.0 0.0
0.2479999999993495 0.0 0.0
0.248999999999348 0.0 0.0
0.2499999999993464 0.0 0.0
0.2509999999993477 0.0 0.0
0.2519999999993489 0.0 0.0
0.2529999999993502 0.0 0.0
0.2539999999993516 0.0 0.0
0.2549999999993542 0.0 0.0
0.2559999999993569 0.0 0.0
0.2569999999993595 0.0 0.0
0.2579999999993621 0.0 0.0
0.2589999999993647 0.0 0.0
0.2599999999993673 0.0 0.0
0.26099999999937 0.0 0.0
0.2619999999993726 0.0 0.0
0.2629999999993753 0.0 0.0
0.2639999999993779 0.0 0.0
0.2649999999993806 0.0 0.0
0.2659999999993832 0.0 0.0
0.2669999999993858 0.0 0.0
0.2679999999993884 0.0 0.0
0.2689999999993911 0.0 0.0
0.2699999999993937 0.0 0.0
0.2709999999993963 0.0 0.0
0.271999999999399 0.0 0.0
0.2729999999994017 0.0 0.0
0.2739999999994043 0.0 0.0
0.2749999999994069 0.0 0.0
0.2759999999994096 0.0 0.0
0.2769999999994122 0.0 0.0
0.2779999999994148 0.0 0.0
0.2789999999994174 0.0 0.0
0.2799999999994201 0.0 0.0
0.2809999999994228 0.0 0.0
0.2819999999994254 0.0 0.0
0.282999999999428 0.0 0.0
0.2839999999994306 0.0 0.0
0.2849999999994333 0.0 0.0
0.2859999999994359 0.0 0.0
0.2869999999994385 0.0 0.0
0.2879999999994411 0.0 0.0
0.2889999999994439 0.0 0.0
0.2899999999994465 0.0 0.0
0.2909999999994491 0.0 0.0
0.2919999999994517 0.0 0.0
0.2929999999994544 0.0 0.0
0.293999999999457 0.0 0.0
0.2949999999994596 0.0 0.0
0.2959999999994622 0.0 0.0
0.2969999999994649 0.0 0.0
0.2979999999994676 0.0 0.0
0.2989999999994702 0.0 0.0
0.2999999999994728 0.0 0.0
0.3009999999994754 0.0 0.0
0.3019999999994781 0.0 0.0
0.3029999999994807 0.0 0.0
0.3039999999994834 0.0 0.0
0.304999999999486 0.0 0.0
0.3059999999994886 0.0 0.0
0.3069999999994913 0.0 0.0
0.3079999999994939 0.0 0.0
0.3089999999994965 0.0 0.0
0.3099999999994992 0.0 0.0
0.3109999999995018 0.0 0.0
0.3119999999995045 0.0 0.0
0.3129999999995071 0.0 0.0
0.3139999999995097 0.0 0.0
0.3149999999995123 0.0 0.0
0.315999999999515 0.0 0.0
0.3169999999995176 0.0 0.0
0.3179999999995203 0.0 0.0
0.3189999999995229 0.0 0.0
0.3199999999995256 0.0 0.0
0.3209999999995282 0.0 0.0
0.3219999999995308 0.0 0.0
0.3229999999995334 0.0 0.0
0.323999999999536 0.0 0.0
0.3249999999995387 0.0 0.0
0.3259999999995414 0.0 0.0
0.326999999999544 0.0 0.0
0.3279999999995466 0.0 0.0
0.3289999999995493 0.0 0.0
0.3299999999995519 0.0 0.0
0.3309999999995545 0.0 0.0
0.3319999999995571 0.0 0.0
0.3329999999995598 0.0 0.0
0.3339999999995625 0.0 0.0
0.3349999999995651 0.0 0.0
0.3359999999995677 0.0 0.0
0.3369999999995703 0.0 0.0
0.337999999999573 0.0 0.0
0.3389999999995756 0.0 0.0
0.3399999999995783 0.0 0.0
0.3409999999995809 0.0 0.0
0.3419999999995835 0.0 0.0
0.3429999999995862 0.0 0.0
0.3439999999995888 0.0 0.0
0.3449999999995914 0.0 0.0
0.345999999999594 0.0 0.0
0.3469999999995967 0.0 0.0
0.3479999999995994 0.0 0.0
0.348999999999602 0.0 0.0
0.3499999999996046 0.0 0.0
0.3509999999996072 0.0 0.0
0.3519999999996099 0.0 0.0
0.3529999999996125 0.0 0.0
0.3539999999996151 0.0 0.0
0.3549999999996178 0.0 0.0
0.3559999999996205 0.0 0.0
0.3569999999996231 0.0 0.0
0.3579999999996257 0.0 0.0
0.3589999999996283 0.0 0.0
0.359999999999631 0.0 0.0
0.3609999999996336 0.0 0.0
0.3619999999996362 0.0 0.0
[...]
POINT_DATA 7930
SCALARS Disp float 2
LOOKUP_TABLE default
0.0 5.43974114616294e-05
0.0 0.1
0.0 0.1
0.0 0.0
1.3539451460988783e-17 0.0
-6.256494171250213e-06 5.042157407294202e-05
-1.068465048866422e-05 3.6219151540126415e-05
-1.023181418436097e-05 0.0
-5.948646800816119e-06 0.0
-4.152426124421003e-06 0.0
-2.8762555601640593e-06 0.0
-2.0268928803659255e-06 0.0
-1.5132927799086236e-06 0.0
-1.120816255659313e-06 0.0
-8.484579098060673e-07 0.0
-6.220830028940255e-07 0.0
-4.564007511857869e-07 0.0
-3.363088104592677e-07 0.0
-2.444001558305223e-07 0.0
-1.727971325443663e-07 0.0
-1.1898517734667593e-07 0.0
-7.712858518780721e-08 0.0
-4.605623603252605e-08 0.0
-2.3100117980446052e-08 0.0
-6.169410445483255e-09 0.0
6.896565851784518e-09 0.0
1.583186287917873e-08 0.0
2.169252551071468e-08 0.0
2.5309324892740006e-08 0.0
2.7162752868911643e-08 0.0
2.8147135133078664e-08 0.0
2.814112825046205e-08 0.0
2.752981950549243e-08 0.0
2.6448951917002417e-08 0.0
2.508522177165249e-08 0.0
2.3554349783546235e-08 0.0
2.19235673186726e-08 0.0
2.026357586565769e-08 0.0
1.859415804698605e-08 0.0
1.6984257474215562e-08 0.0
1.545686415702002e-08 0.0
1.4005154600108726e-08 0.0
1.2651593203088162e-08 0.0
1.1391852208669417e-08 0.0
1.0231582876839227e-08 0.0
9.166962737506022e-09 0.0
8.195335503478529e-09 0.0
7.3150945704760024e-09 0.0
6.517967799641414e-09 0.0
5.79645255267738e-09 0.0
5.148754620201203e-09 0.0
4.566012441392735e-09 0.0
4.044766960504486e-09 0.0
3.5787535282435904e-09 0.0
3.1630451049581386e-09 0.0
2.7934193695258133e-09 0.0
2.464460191197703e-09 0.0
2.172498318984781e-09 0.0
1.9139753442813677e-09 0.0
1.6844791717735184e-09 0.0
1.4815277080578964e-09 0.0
1.3025809693525536e-09 0.0
1.1446429397685137e-09 0.0
1.0050475622659435e-09 0.0
8.818966961971093e-10 0.0
7.73561884792054e-10 0.0
6.780601066242247e-10 0.0
5.939525929318043e-10 0.0
5.200334174385207e-10 0.0
4.5526771926789987e-10 0.0
3.984251271471356e-10 0.0
3.4850671122594954e-10 0.0
3.046820428333809e-10 0.0
2.663114637543244e-10 0.0
2.327822903138333e-10 0.0
2.0343810799371582e-10 0.0
1.7770128207797115e-10 0.0
1.5513611238213568e-10 0.0
1.353962321194508e-10 0.0
1.18153885705592e-10 0.0
1.0307473336129065e-10 0.0
8.990628867242674e-11 0.0
7.834845791525363e-11 0.0
6.830035369183394e-11 0.0
5.955210379237505e-11 0.0
5.189520806827833e-11 0.0
4.521666531788119e-11 0.0
3.939891392958949e-11 0.0
3.429437133697248e-11 0.0
2.984329974852924e-11 0.0
2.598295073831655e-11 0.0
2.2616294771583705e-11 0.0
1.9682944481082244e-11 0.0
1.712636630307038e-11 0.0
1.4898928358411307e-11 0.0
1.2966968722114177e-11 0.0
1.1277874351190548e-11 0.0
9.806399198922801e-12 0.0
8.524272431263194e-12 0.0
7.404271296459688e-12 0.0
6.4342377712124185e-12 0.0
5.5915647824305824e-12 0.0
4.86149613692926e-12 0.0
4.229136057619172e-12 0.0
3.6724045554422416e-12 0.0
3.1911701141259795e-12 0.0
2.771034540763933e-12 0.0
2.4056619849276694e-12 0.0
2.0883723840275383e-12 0.0
1.81392394115227e-12 0.0
1.574826115590311e-12 0.0
1.3675314476399672e-12 0.0
1.1863815354453083e-12 0.0
1.0296974726240217e-12 0.0
8.933364251133791e-13 0.0
7.751496422732842e-13 0.0
6.726023940478763e-13 0.0
5.833968330002103e-13 0.0
5.058964428462955e-13 0.0
4.389487373555345e-13 0.0
3.808488807800283e-13 0.0
3.303405471950203e-13 0.0
2.8638179954872367e-13 0.0
2.4829296638917407e-13 0.0
2.1586150175053325e-13 0.0
1.86811056052298e-13 0.0
1.6187411795814342e-13 0.0
1.402984417753946e-13 0.0
1.2169552745441224e-13 0.0
1.0535819286146944e-13 0.0
9.129151412897031e-14 0.0
7.918247438528056e-14 0.0
6.860381241242821e-14 0.0
5.943741743202772e-14 0.0
5.1472461562640266e-14 0.0
4.4587341022652294e-14 0.0
3.861835196116373e-14 0.0
3.344479395098575e-14 0.0
2.897273509993877e-14 0.0
2.5100487605260114e-14 0.0
2.1718158173297722e-14 0.0
1.8811510972060964e-14 0.0
1.6288844957025845e-14 0.0
1.4101926670899162e-14 0.0
1.2205764297626177e-14 0.0
1.0566028323335155e-14 0.0
9.146014538522679e-15 0.0
7.918349515721406e-15 0.0
6.853616138286761e-15 0.0
5.931387636191157e-15 0.0
5.1366683497955945e-15 0.0
4.449088367340515e-15 0.0
3.849227477120522e-15 0.0
3.3292540459504092e-15 0.0
2.8819755824231373e-15 0.0
2.4941261197941803e-15 0.0
2.158847032621429e-15 0.0
1.868456772331252e-15 0.0
1.6162647806781382e-15 0.0
1.39830772883787e-15 0.0
1.2082916278514899e-15 0.0
1.0485099208955687e-15 0.0
9.056682167453553e-16 0.0
7.835161051394077e-16 0.0
6.782246601093025e-16 0.0
5.864097467801857e-16 0.0
5.087649436972146e-16 0.0
4.39500105224896e-16 0.0
3.802811508813937e-16 0.0
3.2937491264139624e-16 0.0
2.8522336932796374e-16 0.0
2.4707485686733696e-16 0.0
2.1400469945494658e-16 0.0
1.8539937690472455e-16 0.0
1.6070729635651606e-16 0.0
1.392979087178814e-16 0.0
1.2089271120802778e-16 0.0
1.0496557516583177e-16 0.0
9.114499071844434e-17 0.0
7.919090015859622e-17 0.0
6.889437634292785e-17 0.0
6.000902877306165e-17 0.0
5.2302054035984814e-17 0.0
4.5663915826525855e-17 0.0
3.9938704318891314e-17 0.0
3.497615498945701e-17 0.0
3.070697669910778e-17 0.0
2.7038813200910444e-17 0.0
2.3859029922694127e-17 0.0
2.1102310484310685e-17 0.0
1.8734911674475248e-17 0.0
1.6694387171741963e-17 0.0
1.4931369632389465e-17 0.0
1.3427397591772228e-17 0.0
1.2128689660372717e-17 0.0
1.1014340911329931e-17 0.0
1.0053099470160787e-17 0.0
9.232649645791275e-18 0.0
8.51670259376836e-18 0.0
7.900678436287968e-18 0.0
7.371292790015715e-18 0.0
6.919050831221146e-18 0.0
6.539121180903916e-18 0.0
6.204814137792335e-18 0.0
5.920685807658903e-18 0.0
5.682015869993096e-18 0.0
5.482254189882647e-18 0.0
5.317855861053948e-18 0.0
5.1868396264030624e-18 0.0
5.085467029495161e-18 0.0
5.004644628392103e-18 0.0
4.9434808782035555e-18 0.0
4.897266394071094e-18 0.0
4.8667869937226736e-18 0.0
4.839470682516909e-18 0.0
4.829342974389005e-18 0.0
4.826743565037211e-18 0.0
4.8207990018917596e-18 0.0
4.8250793168567155e-18 0.0
4.834181676389829e-18 0.0
4.8430526489797594e-18 0.0
4.8610458893055984e-18 0.0
4.880576183673023e-18 0.0
4.9016628487558335e-18 0.0
4.922172251812182e-18 0.0
4.9444510131237845e-18 0.0
4.963916240043635e-18 0.0
4.9825458299990946e-18 0.0
4.997904327486615e-18 0.0
5.00831914122503e-18 0.0
5.020798230505124e-18 0.0
5.036215430189376e-18 0.0
5.0522462785389246e-18 0.0
5.074487600551007e-18 0.0
5.094913817178525e-18 0.0
5.115151824168176e-18 0.0
5.133811708736019e-18 0.0
5.1517635643561115e-18 0.0
5.169156199251112e-18 0.0
5.1888738859639976e-18 0.0
5.214524782458274e-18 0.0
5.239838583999659e-18 0.0
5.267120323914791e-18 0.0
5.296919440795468e-18 0.0
5.326758066322554e-18 0.0
5.360480411540978e-18 0.0
5.400059102633419e-18 0.0
5.4459462967208824e-18 0.0
5.487193278614939e-18 0.0
5.532438650972474e-18 0.0
5.5757753294936014e-18 0.0
5.614425318802216e-18 0.0
5.651452067362054e-18 0.0
5.679960493275159e-18 0.0
5.703261691345046e-18 0.0
5.7257983879589245e-18 0.0
5.752382470382174e-18 0.0
5.7727966027643554e-18 0.0
5.791634350149714e-18 0.0
5.812453909193263e-18 0.0
5.83353185992346e-18 0.0
5.856878848054699e-18 0.0
5.883984220498029e-18 0.0
5.91035171217185e-18 0.0
5.936761787282421e-18 0.0
5.959774257996033e-18 0.0
5.9765219335131764e-18 0.0
5.999048440020919e-18 0.0
6.02535057562217e-18 0.0
6.048429697488829e-18 0.0
6.0682516590748686e-18 0.0
6.093573258039308e-18 0.0
6.121721602917609e-18 0.0
6.15342861997646e-18 0.0
6.182433265269641e-18 0.0
6.2075418831046025e-18 0.0
6.235456070785474e-18 0.0
6.2638428939806445e-18 0.0
6.288086420650218e-18 0.0
6.312560474221477e-18 0.0
6.333708028477261e-18 0.0
6.3564243674869324e-18 0.0
6.377025079949096e-18 0.0
6.397960320435207e-18 0.0
6.4178716635858806e-18 0.0
6.4415956136765254e-18 0.0
6.470141434958181e-18 0.0
6.4975038655977916e-18 0.0
6.531681885761725e-18 0.0
6.567418283664013e-18 0.0
6.606413016197926e-18 0.0
6.640267745565724e-18 0.0
6.6820410902702404e-18 0.0
6.7226282638907016e-18 0.0
6.759705760033622e-18 0.0
6.7982959431478006e-18 0.0
6.836964896697947e-18 0.0
6.877787824516638e-18 0.0
6.915214522149297e-18 0.0
6.95003194687758e-18 0.0
6.986587274790513e-18 0.0
7.023319627273844e-18 0.0
7.053041745713312e-18 0.0
7.091143322847215e-18 0.0
7.132468485041501e-18 0.0
7.173946284340691e-18 0.0
7.21813949667658e-18 0.0
7.264412773086276e-18 0.0
7.312617649597647e-18 0.0
7.361504928798283e-18 0.0
7.407067447255246e-18 0.0
7.454566875205517e-18 0.0
7.498554974391496e-18 0.0
7.547983928937159e-18 0.0
7.5969138689491e-18 0.0
7.649818479777988e-18 0.0
7.703266611244245e-18 0.0
7.756124477435045e-18 0.0
7.80440528661569e-18 0.0
7.850281208701884e-18 0.0
7.88720566841452e-18 0.0
7.921738307764348e-18 0.0
7.952446331380925e-18 0.0
7.980863002788084e-18 0.0
8.009470221378384e-18 0.0
8.04167796531916e-18 0.0
8.074545870232307e-18 0.0
8.108162561055021e-18 0.0
8.144103496068277e-18 0.0
8.183509268865213e-18 0.0
8.232701333537218e-18 0.0
8.279387309974324e-18 0.0
8.326076984206721e-18 0.0
8.370991976928469e-18 0.0
8.414324003184133e-18 0.0
8.461118251141446e-18 0.0
8.508744952636008e-18 0.0
8.560666745315952e-18 0.0
8.608941473752859e-18 0.0
8.661722255447334e-18 0.0
8.71530314278591e-18 0.0
8.77044063932919e-18 0.0
8.830641650575445e-18 0.0
8.885987645360363e-18 0.0
8.945943862686684e-18 0.0
9.002688546909112e-18 0.0
9.059703776650115e-18 0.0
9.110229034372978e-18 0.0
9.159520432089026e-18 0.0
9.20485802875341e-18 0.0
9.247156518894593e-18 0.0
9.282118501336722e-18 0.0
9.320641390683472e-18 0.0
9.357930382935048e-18 0.0
9.393592700278049e-18 0.0
9.430679909100489e-18 0.0
9.464859053554144e-18 0.0
9.497940889182183e-18 0.0
9.532628457991501e-18 0.0
9.575243010593362e-18 0.0
9.619808261286476e-18 0.0
9.667723175937807e-18 0.0
9.715920729305925e-18 0.0
9.755443257319468e-18 0.0
9.798795697495704e-18 0.0
9.843910797636983e-18 0.0
9.893683445667291e-18 0.0
9.945081887207385e-18 0.0
9.995862740006983e-18 0.0
1.0057437808744347e-17 0.0
1.0120394458921827e-17 0.0
1.0181070699458396e-17 0.0
1.0238565325616895e-17 0.0
1.0294455073449291e-17 0.0
1.0351477428401858e-17 0.0
1.0404591428570298e-17 0.0
1.0455377346792234e-17 0.0
1.0501300792630652e-17 0.0
1.0549898386187578e-17 0.0
1.058805483882076e-17 0.0
1.0629853414694446e-17 0.0
1.0669809049996097e-17 0.0
1.0707270688540257e-17 0.0
1.0744370876159885e-17 0.0
1.0779953308139705e-17 0.0
1.0808354766256291e-17 0.0
1.084434311173612e-17 0.0
1.0881382900228951e-17 0.0
1.092082290755545e-17 0.0
1.0958958726831884e-17 0.0
1.0996643645157238e-17 0.0
1.1036503976554237e-17 0.0
1.1071500339452639e-17 0.0
1.1108830654669588e-17 0.0
1.1148561423225017e-17 0.0
1.1182405908311164e-17 0.0
1.1213341296294443e-17 0.0
1.124978460571071e-17 0.0
1.1278063190945138e-17 0.0
1.1307156404670062e-17 0.0
1.1334331781964238e-17 0.0
1.136094562808118e-17 0.0
1.1394837199236947e-17 0.0
1.1419873518078683e-17 0.0
1.1438085459648265e-17 0.0
1.1454152313172592e-17 0.0
1.146603008136236e-17 0.0
1.1481396471173308e-17 0.0
1.14996952724932e-17 0.0
1.1512950815911562e-17 0.0
1.1528995895121577e-17 0.0
1.1548387512128219e-17 0.0
1.1565094926792684e-17 0.0
1.1579603439549426e-17 0.0
1.1597878449411727e-17 0.0
1.162445007354412e-17 0.0
1.1646576129943415e-17 0.0
1.1665180307369114e-17 0.0
1.1685131239261343e-17 0.0
1.1700538913354638e-17 0.0
1.1722131988891543e-17 0.0
1.1745648073445192e-17 0.0
1.1763840561367382e-17 0.0
1.1786500456636048e-17 0.0
1.180403948935504e-17 0.0
1.1825655661152254e-17 0.0
1.1834817214683696e-17 0.0
1.1844599810039705e-17 0.0
1.1854136464501326e-17 0.0
1.1865292481662114e-17 0.0
1.1872974670589617e-17 0.0
1.1890272445013396e-17 0.0
1.1905167200844706e-17 0.0
1.1929770127063487e-17 0.0
1.195070642181089e-17 0.0
1.1978029570815087e-17 0.0
1.19985472122862e-17 0.0
1.2021907526708612e-17 0.0
1.2040048133970433e-17 0.0
1.2058205271209044e-17 0.0
1.2083519108374967e-17 0.0
1.2109663428671066e-17 0.0
1.2134358444119126e-17 0.0
1.2154547984629909e-17 0.0
1.2174676756582254e-17 0.0
1.219180216175321e-17 0.0
1.2214278314911111e-17 0.0
1.2236176433752827e-17 0.0
1.2254973211271356e-17 0.0
1.2271855588009661e-17 0.0
1.2290559865571944e-17 0.0
1.230759695863143e-17 0.0
1.2326746472611392e-17 0.0
1.2350118624546533e-17 0.0
1.2378933904595441e-17 0.0
1.2410458666777626e-17 0.0
1.2445216138438852e-17 0.0
1.2485035761584102e-17 0.0
1.2526914125660156e-17 0.0
1.2563327066879406e-17 0.0
1.2596195911925555e-17 0.0
1.2629200425639422e-17 0.0
1.2668669170088918e-17 0.0
1.2703251174699999e-17 0.0
1.2735786832234506e-17 0.0
1.2763135167974398e-17 0.0
1.279149045175783e-17 0.0
1.2813074087730023e-17 0.0
1.2832512216854743e-17 0.0
1.2845933456624933e-17 0.0
1.285875819689118e-17 0.0
1.2870129089386819e-17 0.0
1.2882707489995776e-17 0.0
1.2893080109202789e-17 0.0
1.2903259107355376e-17 0.0
1.2912340893350003e-17 0.0
1.292603290084949e-17 0.0
1.2944382371393773e-17 0.0
1.2964769749990904e-17 0.0
1.2991939345058131e-17 0.0
1.302279974985064e-17 0.0
1.305354101240628e-17 0.0
1.3082158583811928e-17 0.0
1.3114484041815901e-17 0.0
1.3145080211246839e-17 0.0
1.3176553413391428e-17 0.0
1.3211436974462211e-17 0.0
1.3248922793074441e-17 0.0
1.328687869598539e-17 0.0
1.3314745954208163e-17 0.0
1.3342500130069076e-17 0.0
1.3368482473238454e-17 0.0
1.3396559836904676e-17 0.0
1.3418619962654833e-17 0.0
1.3435274651590404e-17 0.0
1.3452085612041737e-17 0.0
1.3461648525308488e-17 0.0
1.3469626235155653e-17 0.0
1.3485730865587215e-17 0.0
1.3499640263691107e-17 0.0
1.3507923915205963e-17 0.0
1.351566946217384e-17 0.0
1.3521769799035343e-17 0.0
1.3532950590352727e-17 0.0
1.354504366890252e-17 0.0
1.3556437554332361e-17 0.0
1.3568415547135162e-17 0.0
1.3581505750415039e-17 0.0
1.3600746108493738e-17 0.0
1.3610532765340688e-17 0.0
1.3627092749170609e-17 0.0
1.3640154438236338e-17 0.0
1.3643651216082507e-17 0.0
1.3655957450268765e-17 0.0
1.3685368210523781e-17 0.0
1.3732805901831969e-17 0.0
1.3813655188754619e-17 0.0
1.390095235229233e-17 0.0
1.400155558826698e-17 0.0
1.412102636441822e-17 0.0
1.4245861197254714e-17 0.0
1.4373910657398882e-17 0.0
1.44926128524237e-17 0.0
1.4617462914753077e-17 0.0
1.474586916522094e-17 0.0
1.485173957509028e-17 0.0
1.5019888389135262e-17 0.0
1.5190336881523545e-17 0.0
1.5332681566993196e-17 0.0
1.5542910464491854e-17 0.0
1.572393549996099e-17 0.0
1.595472511706333e-17 0.0
1.6234907067996135e-17 0.0
1.6544378813819667e-17 0.0
1.6691968854448176e-17 0.0
1.6983432939753145e-17 0.0
1.7344685050034464e-17 0.0
1.772831673104856e-17 0.0
1.8139860145764265e-17 0.0
1.8545633672183418e-17 0.0
1.9204617403720482e-17 0.0
1.9801572298416755e-17 0.0
2.0557096962417455e-17 0.0
2.1369818731144093e-17 0.0
2.2178117494920362e-17 0.0
2.3012410499863873e-17 0.0
2.418244713859506e-17 0.0
2.5271621735682344e-17 0.0
2.6301001406040494e-17 0.0
2.7617157475995948e-17 0.0
2.8976283222716566e-17 0.0
3.009230150873774e-17 0.0
3.148178790430076e-17 0.0
3.3110798241961647e-17 0.0
3.542968823389528e-17 0.0
3.785486471051433e-17 0.0
4.014654906248054e-17 0.0
4.219286728916761e-17 0.0
4.3925669827836195e-17 0.0
4.505316491961265e-17 0.0
4.6521206362892473e-17 0.0
4.78515197387002e-17 0.0
4.906070248650248e-17 0.0
4.985622207764886e-17 0.0
5.0066846301100986e-17 0.0
5.0398647039456945e-17 0.0
5.064702457296238e-17 0.0
5.03643941455934e-17 0.0
4.942325834215881e-17 0.0
4.790815937269898e-17 0.0
4.4409187694704364e-17 0.0
3.843715840862744e-17 0.0
3.234640907098363e-17 0.0
2.790795107612216e-17 0.0
2.6470986583295945e-17 0.0
2.6506596527512014e-17 0.0
2.4562146541371674e-17 0.0
2.30182439859806e-17 0.0
1.8396670072431544e-17 0.0
1.4207995336110115e-17 0.0
9.876040258209903e-18 0.0
6.209936715254858e-18 0.0
2.8055612759098803e-18 0.0
0.0 0.009234165287256022
0.0 0.022109785930449655
0.0 0.04006285207154415
0.0 0.06509563926325818
-2.5457714608373165e-17 0.1
-2.3672825779195e-17 0.1
-3.460040702438711e-17 0.1
-3.748507849424915e-17 0.1
0.0 0.0923409595166236
0.0 0.08526779443703743
0.0 0.0787356878350001
0.0 0.07270325358170412
0.0 0.06713226878993242
0.0 0.06198743331090946
0.0 0.057236152337945136
0.0 0.052848316929512106
0.0 0.048796128449944326
0.0 0.045053910657847085
0.0 0.041597952827127006
0.0 0.038406357242570445
0.0 0.035458901718218444
0.0 0.03273691087332371
0.0 0.03022313773602726
0.0 0.027901654838202887
0.0 0.02575775300195986
0.0 0.023777848352113946
0.0 0.02194939580780251
0.0 0.020260810255893543
0.0 0.01870139222365262
0.0 0.017261261595034494
0.0 0.015931293336680193
0.0 0.014703060372940372
0.0 0.013568780782904494
0.0 0.012521267482861354
0.0 0.011553883413523681
0.0 0.010660499143842919
0.0 0.009835453922831092
0.0 0.009073520329637423
0.0 0.008369870608788542
0.0 0.007720046303381117
0.0 0.007119930012359783
0.0 0.006565719473503325
0.0 0.0060539031385673575
0.0 0.005581237991563805
0.0 0.0051447292260391915
0.0 0.004741611057488201
0.0 0.004369329279130305
0.0 0.00402552504434288
0.0 0.003708020011724203
0.0 0.0034148024235082465
0.0 0.0031440144220396854
0.0 0.002893940270132386
0.0 0.002662995467766812
0.0 0.002449716685412264
0.0 0.002252752621429001
0.0 0.002070855251383738
0.0 0.0019028720458818041
0.0 0.001747738681008295
0.0 0.0016044721594813158
0.0 0.0014721647900180533
0.0 0.0013499782222154708
0.0 0.0012371382774693015
0.0 0.0011329299901309427
0.0 0.0010366930953425936
0.0 0.0009478178164698164
0.0 0.0008657410666900948
0.0 0.0007899428615474307
0.0 0.0007199431087623715
0.0 0.0006552986580557233
0.0 0.0005956006700176985
0.0 0.0005404720143939463
0.0 0.0004895661546154248
0.0 0.000442563295792076
0.0 0.0003991724881750941
0.0 0.000359125461261465
0.0 0.0003221797086575903
0.0 0.0002881172024494223
0.0 0.0002567422481116747
0.0 0.00022788228251531152
0.0 0.00020138272799060362
0.0 0.0001771248618525125
0.0 0.00015499325984497428
0.0 0.00013494063059770072
0.0 0.00011691547102238829
0.0 0.00010086886149972695
0.0 8.691269651114536e-05
0.0 7.508774180694524e-05
0.0 6.581323938277573e-05
0.0 5.941139395469841e-05
0.0 5.609742781689498e-05
0.0 5.573831921444425e-05
1.6062134923966387e-17 0.004927245132661855
8.559064781360214e-18 0.0027738745973897357
4.461162417645801e-18 0.0015359333715498254
1.0004595144904048e-13 0.0009049730035343936
7.173761556186743e-18 0.0014042041053077808
1.4650305163449325e-17 0.002259784942604713
3.6419700748942134e-10 0.000505175062586965
1.0298534890761492e-17 0.0012867734734088366
2.554886973223074e-17 0.0007827815987198303
5.391862295884039e-18 0.0007701206757723364
7.771161062975271e-18 0.0007097590365106985
1.0205226141086435e-17 0.0006767768962500066
3.0917532476783774e-17 0.01497373646140998
1.166367780840395e-17 0.0006657294860763375
2.3272012922153644e-12 0.000444313518148626
7.232751502961942e-15 0.00043919062240561473
1.5292066371065148e-17 0.0011704180815624331
2.5484612255939867e-08 0.0002986211898693854
3.183548623578636e-17 0.0003917646274951447
4.7380666521422915e-18 0.00042324461537985913
6.1013947859571456e-18 0.00040049305403301914
6.890583718634757e-18 0.00037727737010161616
8.65131791782748e-18 0.00037799227366882513
1.321243080167057e-17 0.0006414990043901044
1.0440131382970788e-17 0.00035247014978887327
1.1435314589787778e-17 0.00039119165164138125
-8.331206400886456e-21 0.04847397115433253
1.411154599810209e-09 0.0002533969071502
5.451005583711852e-11 0.0002423341149762308
1.2048491147360531e-17 0.00033400753026386606
1.280244301524763e-17 0.0003955732173969898
3.267864977523629e-17 0.00798949711475718
2.3606451223010663e-17 0.003711834662427666
2.6394724667962417e-12 0.0002219468226899703
1.0073253142550172e-13 0.00023130453764484913
4.519777910078341e-15 0.00022203594811099549
2.5556831366181707e-16 0.0002008670216674996
1.7293899305033366e-17 0.00019930870159537905
4.964779900762975e-18 0.00022296027562329163
5.2044071135305876e-18 0.00021839892709070243
5.592815098864433e-18 0.00020043056540891883
6.2698278513474344e-18 0.0002208509368239466
3.464937472686703e-07 0.00016480378956066876
6.70288887119159e-18 0.00018666584180315111
7.568797882267462e-18 0.00021249040749849235
8.595703806332458e-18 0.00019683474572091306
9.420293292952502e-18 0.00021055617682709825
1.25904136254815e-17 0.00023517685632601742
1.1154552816138082e-17 0.00023249742153095716