# vtk DataFile Version 3.0
Some data
ASCII
DATASET UNSTRUCTURED_GRID
POINTS 7930 float
0.0 0.0 0.0
0.0 10.0 0.0
10.0 10.0 0.0
10.0 0.0 0.0
0.5 0.0 0.0
0.0009999999999981016 0.0 0.0
0.001999999999996203 0.0 0.0
0.002999999999994305 0.0 0.0
0.003999999999992409 0.0 0.0
0.004999999999990531 0.0 0.0
0.005999999999988653 0.0 0.0
0.006999999999986775 0.0 0.0
0.007999999999984898 0.0 0.0
0.008999999999983018 0.0 0.0
0.009999999999981142 0.0 0.0
0.01099999999997926 0.0 0.0
0.01199999999997736 0.0 0.0
0.0129999999999754 0.0 0.0
0.01399999999997343 0.0 0.0
0.01499999999997147 0.0 0.0
0.01599999999996944 0.0 0.0
0.0169999999999673 0.0 0.0
0.01799999999996516 0.0 0.0
0.01899999999996302 0.0 0.0
0.01999999999996084 0.0 0.0
0.02099999999995862 0.0 0.0
0.02199999999995639 0.0 0.0
0.02299999999995417 0.0 0.0
0.02399999999995195 0.0 0.0
0.02499999999994972 0.0 0.0
0.0259999999999475 0.0 0.0
0.02699999999994527 0.0 0.0
0.02799999999994315 0.0 0.0
0.0289999999999411 0.0 0.0
0.02999999999993905 0.0 0.0
0.030999999999937 0.0 0.0
0.03199999999993521 0.0 0.0
0.0329999999999335 0.0 0.0
0.0339999999999318 0.0 0.0
0.03499999999993009 0.0 0.0
0.03599999999992853 0.0 0.0
0.036999999999927 0.0 0.0
0.03799999999992547 0.0 0.0
0.03899999999992394 0.0 0.0
0.03999999999992241 0.0 0.0
0.04099999999992088 0.0 0.0
0.04199999999991934 0.0 0.0
0.04299999999991782 0.0 0.0
0.04399999999991629 0.0 0.0
0.04499999999991475 0.0 0.0
0.04599999999991322 0.0 0.0
0.0469999999999117 0.0 0.0
0.04799999999991016 0.0 0.0
0.04899999999990863 0.0 0.0
0.0499999999999071 0.0 0.0
0.05099999999990557 0.0 0.0
0.05199999999990404 0.0 0.0
0.05299999999990251 0.0 0.0
0.05399999999990097 0.0 0.0
0.05499999999989943 0.0 0.0
0.05599999999989791 0.0 0.0
0.05699999999989638 0.0 0.0
0.05799999999989484 0.0 0.0
0.05899999999989317 0.0 0.0
0.05999999999989129 0.0 0.0
0.06099999999988941 0.0 0.0
0.06199999999988753 0.0 0.0
0.06299999999988531 0.0 0.0
0.06399999999988273 0.0 0.0
0.06499999999988015 0.0 0.0
0.06599999999987759 0.0 0.0
0.0669999999998748 0.0 0.0
0.06799999999987189 0.0 0.0
0.06899999999986897 0.0 0.0
0.06999999999986604 0.0 0.0
0.07099999999986313 0.0 0.0
0.0719999999998602 0.0 0.0
0.07299999999985729 0.0 0.0
0.07399999999985438 0.0 0.0
0.07499999999985145 0.0 0.0
0.07599999999984854 0.0 0.0
0.07699999999984562 0.0 0.0
0.0779999999998427 0.0 0.0
0.07899999999983978 0.0 0.0
0.07999999999983685 0.0 0.0
0.08099999999983394 0.0 0.0
0.08199999999983103 0.0 0.0
0.0829999999998281 0.0 0.0
0.08399999999982519 0.0 0.0
0.08499999999982226 0.0 0.0
0.08599999999981935 0.0 0.0
0.08699999999981643 0.0 0.0
0.0879999999998135 0.0 0.0
0.08899999999981059 0.0 0.0
0.08999999999980766 0.0 0.0
0.09099999999980475 0.0 0.0
0.09199999999980184 0.0 0.0
0.09299999999979891 0.0 0.0
0.093999999999796 0.0 0.0
0.09499999999979307 0.0 0.0
0.09599999999979016 0.0 0.0
0.09699999999978724 0.0 0.0
0.09799999999978432 0.0 0.0
0.0989999999997814 0.0 0.0
0.09999999999977847 0.0 0.0
0.1009999999997756 0.0 0.0
0.1019999999997726 0.0 0.0
0.1029999999997697 0.0 0.0
0.1039999999997668 0.0 0.0
0.1049999999997639 0.0 0.0
0.105999999999761 0.0 0.0
0.106999999999758 0.0 0.0
0.1079999999997551 0.0 0.0
0.1089999999997522 0.0 0.0
0.1099999999997493 0.0 0.0
0.1109999999997464 0.0 0.0
0.1119999999997434 0.0 0.0
0.1129999999997405 0.0 0.0
0.1139999999997376 0.0 0.0
0.1149999999997347 0.0 0.0
0.1159999999997318 0.0 0.0
0.1169999999997288 0.0 0.0
0.1179999999997259 0.0 0.0
0.118999999999723 0.0 0.0
0.1199999999997201 0.0 0.0
0.1209999999997172 0.0 0.0
0.1219999999997143 0.0 0.0
0.1229999999997113 0.0 0.0
0.1239999999997084 0.0 0.0
0.1249999999997055 0.0 0.0
0.1259999999997026 0.0 0.0
0.1269999999996997 0.0 0.0
0.1279999999996967 0.0 0.0
0.1289999999996938 0.0 0.0
0.1299999999996909 0.0 0.0
0.130999999999688 0.0 0.0
0.1319999999996851 0.0 0.0
0.1329999999996822 0.0 0.0
0.1339999999996792 0.0 0.0
0.1349999999996764 0.0 0.0
0.1359999999996734 0.0 0.0
0.1369999999996705 0.0 0.0
0.1379999999996676 0.0 0.0
0.1389999999996647 0.0 0.0
0.1399999999996618 0.0 0.0
0.1409999999996588 0.0 0.0
0.1419999999996559 0.0 0.0
0.142999999999653 0.0 0.0
0.1439999999996501 0.0 0.0
0.1449999999996472 0.0 0.0
0.1459999999996442 0.0 0.0
0.1469999999996414 0.0 0.0
0.1479999999996384 0.0 0.0
0.1489999999996355 0.0 0.0
0.1499999999996326 0.0 0.0
0.1509999999996297 0.0 0.0
0.1519999999996268 0.0 0.0
0.1529999999996239 0.0 0.0
0.1539999999996209 0.0 0.0
0.154999999999618 0.0 0.0
0.1559999999996151 0.0 0.0
0.1569999999996122 0.0 0.0
0.1579999999996093 0.0 0.0
0.1589999999996064 0.0 0.0
0.1599999999996035 0.0 0.0
0.1609999999996005 0.0 0.0
0.1619999999995976 0.0 0.0
0.1629999999995947 0.0 0.0
0.1639999999995918 0.0 0.0
0.1649999999995889 0.0 0.0
0.165999999999586 0.0 0.0
0.1669999999995831 0.0 0.0
0.1679999999995801 0.0 0.0
0.1689999999995772 0.0 0.0
0.1699999999995743 0.0 0.0
0.1709999999995714 0.0 0.0
0.1719999999995685 0.0 0.0
0.1729999999995655 0.0 0.0
0.1739999999995626 0.0 0.0
0.1749999999995597 0.0 0.0
0.1759999999995568 0.0 0.0
0.1769999999995539 0.0 0.0
0.177999999999551 0.0 0.0
0.178999999999548 0.0 0.0
0.1799999999995451 0.0 0.0
0.1809999999995422 0.0 0.0
0.1819999999995393 0.0 0.0
0.1829999999995364 0.0 0.0
0.1839999999995335 0.0 0.0
0.1849999999995305 0.0 0.0
0.1859999999995277 0.0 0.0
0.1869999999995247 0.0 0.0
0.1879999999995218 0.0 0.0
0.1889999999995189 0.0 0.0
0.189999999999516 0.0 0.0
0.1909999999995131 0.0 0.0
0.1919999999995101 0.0 0.0
0.1929999999995072 0.0 0.0
0.1939999999995043 0.0 0.0
0.1949999999995014 0.0 0.0
0.1959999999994985 0.0 0.0
0.1969999999994956 0.0 0.0
0.1979999999994927 0.0 0.0
0.1989999999994897 0.0 0.0
0.1999999999994868 0.0 0.0
0.2009999999994839 0.0 0.0
0.201999999999481 0.0 0.0
0.2029999999994781 0.0 0.0
0.2039999999994752 0.0 0.0
0.2049999999994722 0.0 0.0
0.2059999999994693 0.0 0.0
0.2069999999994664 0.0 0.0
0.2079999999994635 0.0 0.0
0.2089999999994606 0.0 0.0
0.2099999999994577 0.0 0.0
0.2109999999994548 0.0 0.0
0.2119999999994518 0.0 0.0
0.2129999999994489 0.0 0.0
0.213999999999446 0.0 0.0
0.2149999999994431 0.0 0.0
0.2159999999994402 0.0 0.0
0.2169999999994373 0.0 0.0
0.2179999999994343 0.0 0.0
0.2189999999994314 0.0 0.0
0.2199999999994285 0.0 0.0
0.2209999999994256 0.0 0.0
0.2219999999994227 0.0 0.0
0.2229999999994198 0.0 0.0
0.2239999999994168 0.0 0.0
0.2249999999994139 0.0 0.0
0.225999999999411 0.0 0.0
0.2269999999994081 0.0 0.0
0.2279999999994052 0.0 0.0
0.2289999999994023 0.0 0.0
0.2299999999993994 0.0 0.0
0.2309999999993964 0.0 0.0
0.2319999999993935 0.0 0.0
0.2329999999993906 0.0 0.0
0.2339999999993877 0.0 0.0
0.2349999999993848 0.0 0.0
0.2359999999993818 0.0 0.0
0.236999999999379 0.0 0.0
0.237999999999376 0.0 0.0
0.2389999999993731 0.0 0.0
0.2399999999993702 0.0 0.0
0.2409999999993673 0.0 0.0
0.2419999999993644 0.0 0.0
0.2429999999993615 0.0 0.0
0.2439999999993585 0.0 0.0
0.2449999999993556 0.0 0.0
0.2459999999993527 0.0 0.0
0.246999999999351 0.0 0.0
0.2479999999993495 0.0 0.0
0.248999999999348 0.0 0.0
0.2499999999993464 0.0 0.0
0.2509999999993477 0.0 0.0
0.2519999999993489 0.0 0.0
0.2529999999993502 0.0 0.0
0.2539999999993516 0.0 0.0
0.2549999999993542 0.0 0.0
0.2559999999993569 0.0 0.0
0.2569999999993595 0.0 0.0
0.2579999999993621 0.0 0.0
0.2589999999993647 0.0 0.0
0.2599999999993673 0.0 0.0
0.26099999999937 0.0 0.0
0.2619999999993726 0.0 0.0
0.2629999999993753 0.0 0.0
0.2639999999993779 0.0 0.0
0.2649999999993806 0.0 0.0
0.2659999999993832 0.0 0.0
0.2669999999993858 0.0 0.0
0.2679999999993884 0.0 0.0
0.2689999999993911 0.0 0.0
0.2699999999993937 0.0 0.0
0.2709999999993963 0.0 0.0
0.271999999999399 0.0 0.0
0.2729999999994017 0.0 0.0
0.2739999999994043 0.0 0.0
0.2749999999994069 0.0 0.0
0.2759999999994096 0.0 0.0
0.2769999999994122 0.0 0.0
0.2779999999994148 0.0 0.0
0.2789999999994174 0.0 0.0
0.2799999999994201 0.0 0.0
0.2809999999994228 0.0 0.0
0.2819999999994254 0.0 0.0
0.282999999999428 0.0 0.0
0.2839999999994306 0.0 0.0
0.2849999999994333 0.0 0.0
0.2859999999994359 0.0 0.0
0.2869999999994385 0.0 0.0
0.2879999999994411 0.0 0.0
0.2889999999994439 0.0 0.0
0.2899999999994465 0.0 0.0
0.2909999999994491 0.0 0.0
0.2919999999994517 0.0 0.0
0.2929999999994544 0.0 0.0
0.293999999999457 0.0 0.0
0.2949999999994596 0.0 0.0
0.2959999999994622 0.0 0.0
0.2969999999994649 0.0 0.0
0.2979999999994676 0.0 0.0
0.2989999999994702 0.0 0.0
0.2999999999994728 0.0 0.0
0.3009999999994754 0.0 0.0
0.3019999999994781 0.0 0.0
0.3029999999994807 0.0 0.0
0.3039999999994834 0.0 0.0
0.304999999999486 0.0 0.0
0.3059999999994886 0.0 0.0
0.3069999999994913 0.0 0.0
0.3079999999994939 0.0 0.0
0.3089999999994965 0.0 0.0
0.3099999999994992 0.0 0.0
0.3109999999995018 0.0 0.0
0.3119999999995045 0.0 0.0
0.3129999999995071 0.0 0.0
0.3139999999995097 0.0 0.0
0.3149999999995123 0.0 0.0
0.315999999999515 0.0 0.0
0.3169999999995176 0.0 0.0
0.3179999999995203 0.0 0.0
0.3189999999995229 0.0 0.0
0.3199999999995256 0.0 0.0
0.3209999999995282 0.0 0.0
0.3219999999995308 0.0 0.0
0.3229999999995334 0.0 0.0
0.323999999999536 0.0 0.0
0.3249999999995387 0.0 0.0
0.3259999999995414 0.0 0.0
0.326999999999544 0.0 0.0
0.3279999999995466 0.0 0.0
0.3289999999995493 0.0 0.0
0.3299999999995519 0.0 0.0
0.3309999999995545 0.0 0.0
0.3319999999995571 0.0 0.0
0.3329999999995598 0.0 0.0
0.3339999999995625 0.0 0.0
0.3349999999995651 0.0 0.0
0.3359999999995677 0.0 0.0
0.3369999999995703 0.0 0.0
0.337999999999573 0.0 0.0
0.3389999999995756 0.0 0.0
0.3399999999995783 0.0 0.0
0.3409999999995809 0.0 0.0
0.3419999999995835 0.0 0.0
0.3429999999995862 0.0 0.0
0.3439999999995888 0.0 0.0
0.3449999999995914 0.0 0.0
0.345999999999594 0.0 0.0
0.3469999999995967 0.0 0.0
0.3479999999995994 0.0 0.0
0.348999999999602 0.0 0.0
0.3499999999996046 0.0 0.0
0.3509999999996072 0.0 0.0
0.3519999999996099 0.0 0.0
0.3529999999996125 0.0 0.0
0.3539999999996151 0.0 0.0
0.3549999999996178 0.0 0.0
0.3559999999996205 0.0 0.0
0.3569999999996231 0.0 0.0
0.3579999999996257 0.0 0.0
0.3589999999996283 0.0 0.0
0.359999999999631 0.0 0.0
0.3609999999996336 0.0 0.0
0.3619999999996362 0.0 0.0
[...]
POINT_DATA 7930
SCALARS Disp float 2
LOOKUP_TABLE default
0.0 0.0006876530807529255
0.0 0.1
0.0 0.1
0.0 0.0
2.4084857769141777e-14 0.0
-6.998740169782544e-06 0.0006874072954081827
-1.3941648295758725e-05 0.0006863120880758736
-2.0675422864264913e-05 0.0006841091630868834
-2.7310642124159787e-05 0.0006817597716520097
-3.417686073951548e-05 0.0006798866866075307
-4.158425692039974e-05 0.0006767681516246907
-4.862008936960687e-05 0.0006707735380808688
-5.488754114186931e-05 0.0006648215667110373
-6.145055686966562e-05 0.00066030648205616
-6.857919761502326e-05 0.0006552932702646672
-7.571806017901488e-05 0.0006465303354138862
-8.199408542089734e-05 0.0006374678906438107
-8.862002112721783e-05 0.0006302911427304502
-9.590691044617605e-05 0.0006219874376539991
-0.00010309012955513072 0.0006098725821392482
-0.00010916265479789357 0.0005969629828142796
-0.00011543974863862695 0.0005863589322574256
-0.0001229477723122857 0.000574666235116397
-0.0001304534420434881 0.0005584911376615163
-0.00013642328201926446 0.0005406702689626569
-0.00014254988560512293 0.0005258385750462124
-0.00015012662724916197 0.0005097458991984055
-0.00015767167139567133 0.0004879590238737138
-0.00016384205223724836 0.00046360431858652495
-0.00016989197708143283 0.00044150739193155546
-0.0001776100173328804 0.0004176151488822515
-0.0001846898011042545 0.000386657462345407
-0.00019119716996591376 0.00035103384887833454
-0.00019672018917865907 0.00031508762615990824
-0.00020425245213201855 0.0002724933604397142
-0.00020882338829371518 0.0002169103779369608
-0.0002096815113691471 0.00013880161583556118
-0.00019036676786463895 0.0
-0.0001696637567426883 0.0
-0.000152115148621451 0.0
-0.00013876170254644525 0.0
-0.0001292962025135667 0.0
-0.0001212811265705594 0.0
-0.00011458311422453238 0.0
-0.00010867018212040155 0.0
-0.00010347483309146358 0.0
-9.884093154971724e-05 0.0
-9.456050536556364e-05 0.0
-9.061170317136572e-05 0.0
-8.70101387784843e-05 0.0
-8.366240537144103e-05 0.0
-8.057430468498905e-05 0.0
-7.767573855656408e-05 0.0
-7.494358583357168e-05 0.0
-7.235291333571603e-05 0.0
-6.990741196805791e-05 0.0
-6.760170840155582e-05 0.0
-6.541568866451589e-05 0.0
-6.326990601450567e-05 0.0
-6.126591439867604e-05 0.0
-5.936179885852721e-05 0.0
-5.754737035413898e-05 0.0
-5.5807531280677136e-05 0.0
-5.414840648830059e-05 0.0
-5.255818349655842e-05 0.0
-5.1025379460729427e-05 0.0
-4.955543679762282e-05 0.0
-4.814205221618955e-05 0.0
-4.6777528711000595e-05 0.0
-4.54647844701926e-05 0.0
-4.4200632169778e-05 0.0
-4.2976813712940185e-05 0.0
-4.179255654876274e-05 0.0
-4.0649491726178937e-05 0.0
-3.95452695274567e-05 0.0
-3.847299528448921e-05 0.0
-3.7434451244122446e-05 0.0
-3.642774951155954e-05 0.0
-3.544820911840885e-05 0.0
-3.449945029622692e-05 0.0
-3.3580275259078145e-05 0.0
-3.268859898087846e-05 0.0
-3.182358813658325e-05 0.0
-3.098170631651763e-05 0.0
-3.0165123666585178e-05 0.0
-2.9372109867412754e-05 0.0
-2.8600199392615195e-05 0.0
-2.7848955327319115e-05 0.0
-2.7119230988052642e-05 0.0
-2.6406129021057893e-05 0.0
-2.5709897451815405e-05 0.0
-2.5031460889111308e-05 0.0
-2.4369011331133043e-05 0.0
-2.3722274267810456e-05 0.0
-2.3088487370606024e-05 0.0
-2.2468129130633516e-05 0.0
-2.186027796303667e-05 0.0
-2.126379095676213e-05 0.0
-2.06787553546544e-05 0.0
-2.0105623252344765e-05 0.0
-1.9543037699549024e-05 0.0
-1.898958860807357e-05 0.0
-1.8446420968859265e-05 0.0
-1.791218344458587e-05 0.0
-1.7388629751956586e-05 0.0
-1.6874648898324533e-05 0.0
-1.6371255240590836e-05 0.0
-1.5878078608902034e-05 0.0
-1.5395222469677348e-05 0.0
-1.4922700226819537e-05 0.0
-1.4458554193270096e-05 0.0
-1.4005975502395481e-05 0.0
-1.356547780515681e-05 0.0
-1.3131064147841978e-05 0.0
-1.2708351761012495e-05 0.0
-1.2295924204562468e-05 0.0
-1.1892392996077388e-05 0.0
-1.1498507379684493e-05 0.0
-1.1113936655009395e-05 0.0
-1.0737973831914443e-05 0.0
-1.0370817478532362e-05 0.0
-1.0012327036570932e-05 0.0
-9.661898677162766e-06 0.0
-9.320466897872607e-06 0.0
-8.983812590188324e-06 0.0
-8.654687655390952e-06 0.0
-8.331744065517952e-06 0.0
-8.015739050906023e-06 0.0
-7.704391220169068e-06 0.0
-7.398681558121102e-06 0.0
-7.09807982871432e-06 0.0
-6.80233303382958e-06 0.0
-6.510841579780522e-06 0.0
-6.22373258013461e-06 0.0
-5.940655580940391e-06 0.0
-5.661508582965869e-06 0.0
-5.386061886247044e-06 0.0
-5.114757932169583e-06 0.0
-4.8476733186762645e-06 0.0
-4.582769100389832e-06 0.0
-4.322139019553989e-06 0.0
-4.064980458095295e-06 0.0
-3.811583763433701e-06 0.0
-3.561809443412109e-06 0.0
-3.3158986243739472e-06 0.0
-3.074141747922993e-06 0.0
-2.8365521212126937e-06 0.0
-2.603287166333164e-06 0.0
-2.3741999373834244e-06 0.0
-2.1497491676094145e-06 0.0
-1.9302864992698895e-06 0.0
-1.7156949808123725e-06 0.0
-1.5058755801917572e-06 0.0
-1.3010422369887128e-06 0.0
-1.1016281400070632e-06 0.0
-9.074894591718352e-07 0.0
-7.189383533922443e-07 0.0
-5.357793644972032e-07 0.0
-3.5791480446381435e-07 0.0
-1.859151598963376e-07 0.0
-1.9432698353102525e-08 0.0
1.4058466126496083e-07 0.0
2.961260027240323e-07 0.0
4.4559703400592463e-07 0.0
5.892498204841296e-07 0.0
7.275150864471732e-07 0.0
8.598768748896946e-07 0.0
9.880515138186911e-07 0.0
1.1102893863826554e-06 0.0
1.2269962600334373e-06 0.0
1.3388107571552814e-06 0.0
1.445593384593325e-06 0.0
1.5478123759498375e-06 0.0
1.6453430771866437e-06 0.0
1.7382265623264162e-06 0.0
1.8268982715948179e-06 0.0
1.9110162054167447e-06 0.0
1.991062462077082e-06 0.0
2.0672652024034315e-06 0.0
2.1395738148292646e-06 0.0
2.2079803769540927e-06 0.0
2.2727034929857327e-06 0.0
2.3341933468548754e-06 0.0
2.3922902050536065e-06 0.0
2.4469942958362377e-06 0.0
2.4987499869296866e-06 0.0
2.5473982080543653e-06 0.0
2.5929465497681225e-06 0.0
2.6358691815519613e-06 0.0
2.6761957456751895e-06 0.0
2.713705536746823e-06 0.0
2.7486685221108567e-06 0.0
2.7809942091060818e-06 0.0
2.8107261991344973e-06 0.0
2.83821174610627e-06 0.0
2.863312232839753e-06 0.0
2.8860329320792624e-06 0.0
2.90649049445324e-06 0.0
2.9246981566361508e-06 0.0
2.9404753972815843e-06 0.0
2.954103760744471e-06 0.0
2.9656687406398978e-06 0.0
2.9749257726875125e-06 0.0
2.9821766157351284e-06 0.0
2.9872217213317886e-06 0.0
2.990223114165911e-06 0.0
2.9912728239887647e-06 0.0
2.9901000911301923e-06 0.0
2.9868249919471756e-06 0.0
2.981584037002138e-06 0.0
2.9744068498842004e-06 0.0
2.9652296535433686e-06 0.0
2.954173326199609e-06 0.0
2.941230561420568e-06 0.0
2.926370699257374e-06 0.0
2.9096160626504977e-06 0.0
2.891135940569081e-06 0.0
2.870900449357378e-06 0.0
2.8488748381027196e-06 0.0
2.8252622888087507e-06 0.0
2.7999986603058374e-06 0.0
2.773186521875362e-06 0.0
2.744821881433463e-06 0.0
2.7149608178134056e-06 0.0
2.683724352147028e-06 0.0
2.6510974873700613e-06 0.0
2.6171923239915286e-06 0.0
2.5820885880978013e-06 0.0
2.5458233876959672e-06 0.0
2.5084646852608268e-06 0.0
2.4700351332078093e-06 0.0
2.4306602118537695e-06 0.0
2.390400235239503e-06 0.0
2.3493226472617935e-06 0.0
2.307539562637728e-06 0.0
2.2650444531471403e-06 0.0
2.221928849636472e-06 0.0
2.1782973997650926e-06 0.0
2.13418702098543e-06 0.0
2.089673611530172e-06 0.0
2.0448442114197246e-06 0.0
1.9997546666560516e-06 0.0
1.954460868803423e-06 0.0
1.9090413523165294e-06 0.0
1.8635564488679253e-06 0.0
1.8180643873347662e-06 0.0
1.772628551658562e-06 0.0
1.7273026051255193e-06 0.0
1.68214443312815e-06 0.0
1.6372133293573386e-06 0.0
1.5925434938317314e-06 0.0
1.5482075553879987e-06 0.0
1.5042410884141482e-06 0.0
1.4606891433049824e-06 0.0
1.4176049588260443e-06 0.0
1.375008092012532e-06 0.0
1.3329459353853812e-06 0.0
1.2914794765863115e-06 0.0
1.2505906451197486e-06 0.0
1.2103268176533102e-06 0.0
1.1707223601055813e-06 0.0
1.131815381969805e-06 0.0
1.0936238402289306e-06 0.0
1.0561660865885805e-06 0.0
1.0194516278005013e-06 0.0
9.835043123923679e-07 0.0
9.483337475650061e-07 0.0
9.139664691881806e-07 0.0
8.803891870155264e-07 0.0
8.476032995989979e-07 0.0
8.156334698842634e-07 0.0
7.844861516722845e-07 0.0
7.541394933993362e-07 0.0
7.24704734670621e-07 0.0
6.959206957894546e-07 0.0
6.680358958167506e-07 0.0
6.409454669968195e-07 0.0
6.146702526598537e-07 0.0
5.891932948571119e-07 0.0
5.64498913969941e-07 0.0
5.40604122132988e-07 0.0
5.174844053421525e-07 0.0
4.951164431490659e-07 0.0
4.7350696251299036e-07 0.0
4.5261128543303737e-07 0.0
4.3246963827079185e-07 0.0
4.1306661700035574e-07 0.0
3.943357219880683e-07 0.0
3.76294335343809e-07 0.0
3.5891329299116895e-07 0.0
3.421879809304729e-07 0.0
3.261174976244579e-07 0.0
3.106634684634146e-07 0.0
2.9582344385747433e-07 0.0
2.815767129291999e-07 0.0
2.6789553012623993e-07 0.0
2.5475751179087277e-07 0.0
2.4219621387903434e-07 0.0
2.3015487867026751e-07 0.0
2.186225461609678e-07 0.0
2.0758338917207085e-07 0.0
1.9702516719607516e-07 0.0
1.8693278838145085e-07 0.0
1.772875039511892e-07 0.0
1.6807886622130946e-07 0.0
1.59282355278772e-07 0.0
1.5089498529789897e-07 0.0
1.428950808936354e-07 0.0
1.352701889480122e-07 0.0
1.2800779117622028e-07 0.0
1.2109074617620926e-07 0.0
1.1450457454819245e-07 0.0
1.0823656249081528e-07 0.0
1.0226938305798451e-07 0.0
9.660126962579349e-08 0.0
9.121950195912106e-08 0.0
8.61057296996474e-08 0.0
8.124685110909117e-08 0.0
7.663630499679456e-08 0.0
7.226034200996351e-08 0.0
6.811048090821161e-08 0.0
6.418454148942414e-08 0.0
6.046789840619594e-08 0.0
5.694741581637136e-08 0.0
5.3604998245036244e-08 0.0
5.0444168526886024e-08 0.0
4.745777552655983e-08 0.0
4.4626420012303213e-08 0.0
4.1952086671316636e-08 0.0
3.943046854022563e-08 0.0
3.70419525291129e-08 0.0
3.4792588937899194e-08 0.0
3.2668787516316465e-08 0.0
3.06650311119455e-08 0.0
2.8779426242609257e-08 0.0
2.6998895073044586e-08 0.0
2.5320975792026235e-08 0.0
2.3740095173277236e-08 0.0
2.2252340373807434e-08 0.0
2.0851165102391357e-08 0.0
1.9532118722867513e-08 0.0
1.8290534673669786e-08 0.0
1.7121949825702914e-08 0.0
1.6024692182523878e-08 0.0
1.4993352562344314e-08 0.0
1.4024414397497488e-08 0.0
1.3113762924642327e-08 0.0
1.2258689484288016e-08 0.0
1.1456744325725394e-08 0.0
1.070675394769846e-08 0.0
1.0000532410781612e-08 0.0
9.33975639383367e-09 0.0
8.71922195288321e-09 0.0
8.136191043874284e-09 0.0
7.591764023850757e-09 0.0
7.083598191467503e-09 0.0
6.60577592789533e-09 0.0
6.1592455647241404e-09 0.0
5.740765087045356e-09 0.0
5.349541148255913e-09 0.0
4.9852779279860345e-09 0.0
4.643069395602695e-09 0.0
4.323643960563668e-09 0.0
4.025052003504676e-09 0.0
3.745345376714276e-09 0.0
3.484805131913186e-09 0.0
3.241978847081326e-09 0.0
3.014890126888566e-09 0.0
2.803159305991456e-09 0.0
2.605706432314065e-09 0.0
2.421499697034468e-09 0.0
2.249917225765451e-09 0.0
2.09003558562303e-09 0.0
1.940975845563995e-09 0.0
1.802113806836938e-09 0.0
1.6726389032104575e-09 0.0
1.5522340205692217e-09 0.0
1.4402372732650269e-09 0.0
1.3359988365499084e-09 0.0
1.239068280001195e-09 0.0
1.1488940090670695e-09 0.0
1.0651784882845136e-09 0.0
9.873125082231265e-10 0.0
9.146109693650219e-10 0.0
8.472346283167604e-10 0.0
7.849315775074224e-10 0.0
7.268336218432721e-10 0.0
6.726855704633224e-10 0.0
6.226715071620984e-10 0.0
5.763353918474458e-10 0.0
5.332386861278408e-10 0.0
4.932264363348675e-10 0.0
4.561410393905862e-10 0.0
4.2164724058201766e-10 0.0
3.897675255245492e-10 0.0
3.603303464171129e-10 0.0
3.3294774641875e-10 0.0
3.075706406481996e-10 0.0
2.840916149866224e-10 0.0
2.6224777022441435e-10 0.0
2.421260802837483e-10 0.0
2.2351246328691038e-10 0.0
2.062657239552605e-10 0.0
1.9035052130151217e-10 0.0
1.7564179160073478e-10 0.0
1.619964424477483e-10 0.0
1.4937987862037385e-10 0.0
1.3772603589486153e-10 0.0
1.269666009736219e-10 0.0
1.1702115083780454e-10 0.0
1.0783350320777079e-10 0.0
9.93496794961464e-11 0.0
9.152195352157081e-11 0.0
8.429250049695254e-11 0.0
7.762154877053985e-11 0.0
7.146037401510163e-11 0.0
6.576917308773707e-11 0.0
6.052524435400507e-11 0.0
5.569113220591531e-11 0.0
5.1233184570079007e-11 0.0
4.7127380087744324e-11 0.0
4.3343708564728176e-11 0.0
3.9852243306234876e-11 0.0
3.6638034449441314e-11 0.0
3.3673872237657596e-11 0.0
3.0944544457531974e-11 0.0
2.843468296449533e-11 0.0
2.6123821848784817e-11 0.0
2.3988101636131817e-11 0.0
2.203116862096737e-11 0.0
2.022994616232908e-11 0.0
1.857525199051043e-11 0.0
1.7050365207960934e-11 0.0
1.564766840772735e-11 0.0
1.435832079204601e-11 0.0
1.3172824315617912e-11 0.0
1.2082392462054495e-11 0.0
1.1079253580449004e-11 0.0
1.0158028810433235e-11 0.0
9.312989107489398e-12 0.0
8.536735856154283e-12 0.0
7.823939055186112e-12 0.0
7.170083307693899e-12 0.0
6.569976212504608e-12 0.0
6.016874646418592e-12 0.0
5.510939142402244e-12 0.0
5.047192703859211e-12 0.0
4.6220601154358585e-12 0.0
4.231641463232829e-12 0.0
3.874183349873403e-12 0.0
3.5448270404952657e-12 0.0
3.244267344599746e-12 0.0
2.9685979229305235e-12 0.0
2.7157496553548767e-12 0.0
2.484355872229544e-12 0.0
2.27223130985247e-12 0.0
2.0776572495528627e-12 0.0
1.899462670428435e-12 0.0
1.7362378254563004e-12 0.0
1.586765996692002e-12 0.0
1.4504849821132435e-12 0.0
1.3250352739105166e-12 0.0
1.2105327810841837e-12 0.0
1.1057002182671407e-12 0.0
1.0098749569753524e-12 0.0
9.223497550935626e-13 0.0
8.42292944723284e-13 0.0
7.689335230382841e-13 0.0
7.016515254763969e-13 0.0
6.403177446182765e-13 0.0
5.84549770371389e-13 0.0
5.336425973728392e-13 0.0
4.867759596696034e-13 0.0
4.4404211039607884e-13 0.0
4.049402400589201e-13 0.0
3.692508227045022e-13 0.0
3.366363762454737e-13 0.0
3.0689349448210767e-13 0.0
2.797442036714212e-13 0.0
2.548798656952422e-13 0.0
2.322640155574338e-13 0.0
2.116484547966001e-13 0.0
1.9287942980654318e-13 0.0
1.7571124647628564e-13 0.0
1.6003685623953185e-13 0.0
1.4572785590120476e-13 0.0
1.3269642213590797e-13 0.0
1.2087887568293695e-13 0.0
1.1002064154782901e-13 0.0
1.001429644344996e-13 0.0
9.114712184856403e-14 0.0
8.293629233745108e-14 0.0
7.549466503072285e-14 0.0
6.867914069666408e-14 0.0
6.24624476752513e-14 0.0
5.681625531761928e-14 0.0
5.1678775131018e-14 0.0
4.6986150049158274e-14 0.0
4.2721313214521917e-14 0.0
3.8840207676369525e-14 0.0
3.531509871551941e-14 0.0
3.21007414441103e-14 0.0
2.916102397939246e-14 0.0
2.6503479517506555e-14 0.0
2.1805042163089426e-14 0.0
1.9571598226935966e-14 0.0
1.7396003706184613e-14 0.0
1.5300081866766394e-14 0.0
1.3306460516197377e-14 0.0
1.1428447670404372e-14 0.0
9.68230792679484e-15 0.0
8.083961028183344e-15 0.0
6.641511647643889e-15 0.0
5.360971004626161e-15 0.0
4.247484238821116e-15 0.0
3.2921204982587562e-15 0.0
2.4969197056242718e-15 0.0
1.8452730403950745e-15 0.0
1.3247074129052937e-15 0.0
9.266391480288352e-16 0.0
6.302699086785362e-16 0.0
4.127840052885065e-16 0.0
2.6480423489988695e-16 0.0
1.64334157682051e-16 0.0
1.002198434114138e-16 0.0
6.088387349453463e-17 0.0
3.837644006749643e-17 0.0
2.492359661708954e-17 0.0
1.8172761120423172e-17 0.0
1.4782439105690527e-17 0.0
1.2521513306124442e-17 0.0
1.0629496115034095e-17 0.0
1.0715147477178615e-17 0.0
1.2201157004779094e-17 0.0
1.4128619643571202e-17 0.0
1.558931978425248e-17 0.0
1.4422380905091192e-17 0.0
1.4142107401317297e-17 0.0
1.5951927566125652e-17 0.0
1.8550102724981282e-17 0.0
2.2739125294558105e-17 0.0
2.6599703913910965e-17 0.0
2.9852479936727954e-17 0.0
2.6847977750002533e-17 0.0
2.128687045185805e-17 0.0
1.456422394684787e-17 0.0
6.640541437899281e-18 0.0
2.2826792501245156e-17 0.0
5.759343713570986e-17 0.0
4.4446070528640966e-17 0.0
3.117096813905551e-17 0.0
4.149927874035797e-17 0.0
3.3983850339907385e-17 0.0
2.1036698959990596e-17 0.0
4.9590241823591496e-17 0.0
3.3212809354617924e-17 0.0
1.019775338263024e-17 0.0
2.207435825473004e-17 0.0
2.0680724191633245e-17 0.0
4.469460291043089e-17 0.0
3.9646033483464725e-17 0.0
5.0508585960095826e-17 0.0
8.372926647420926e-17 0.0
6.776955978975264e-17 0.0
5.395675744756689e-17 0.0
4.372216122805552e-17 0.0
8.053860531888662e-17 0.0
-2.7746120550695876e-17 0.0
1.274559483974948e-16 0.0
-1.9514914264988184e-18 0.0
2.363390942945543e-17 0.0
5.657051677732123e-17 0.0
-3.4059525572698415e-17 0.0
1.06447514025812e-16 0.0
-2.297588156808882e-17 0.0
1.6550480678585634e-17 0.0
8.727144715098868e-17 0.0
-5.2562710288824124e-17 0.0
1.1422361799833218e-16 0.0
4.726755705786563e-17 0.0
-9.316065366375965e-17 0.0
4.1589772232076736e-17 0.0
-2.863831060499996e-17 0.0
0.0 0.00923416528725791
0.0 0.022109785930449634
0.0 0.04006285207153025
0.0 0.06509563926323421
-5.360738276810476e-17 0.1
-7.331774389870167e-17 0.1
7.508388267357719e-16 0.1
-9.179508747227072e-16 0.1
0.0 0.09234095951662778
0.0 0.0852677944370289
0.0 0.07873568783498754
0.0 0.07270325358169934
0.0 0.06713226878994144
0.0 0.061987433310916704
0.0 0.05723615233794881
0.0 0.05284831692952196
0.0 0.04879612844994144
0.0 0.04505391065784477
0.0 0.04159795282712637
0.0 0.038406357242570945
0.0 0.03545890171822328
0.0 0.032736910873326606
0.0 0.030223137736028194
0.0 0.02790165483820336
0.0 0.025757753001959472
0.0 0.02377784835211479
0.0 0.021949395807803022
0.0 0.020260810255894508
0.0 0.01870139222365369
0.0 0.01726126159503523
0.0 0.015931293336680155
0.0 0.01470306037294064
0.0 0.01356878078290465
0.0 0.01252126748286129
0.0 0.01155388341352389
0.0 0.010660499143843141
0.0 0.009835453922831283
0.0 0.009073520329637725
0.0 0.008369870608788908
0.0 0.007720046303381564
0.0 0.007119930012360123
0.0 0.006565719473503351
0.0 0.006053903138567641
0.0 0.005581237991565264
0.0 0.005144729226035071
0.0 0.00474161105732922
0.0 0.0043693292819810894
0.0 0.004025525086317708
0.0 0.00370802073832513
0.0 0.0034148244940083866
0.0 0.0031442054251733915
0.0 0.0028948851423279006
0.0 0.0026660286899704913
0.0 0.002456710899514868
0.0 0.0022650328097072125
0.0 0.0020893174861855686
0.0 0.0019284735767294032
0.0 0.0017822481277799268
0.0 0.0016498136462019047
0.0 0.0015294482183443984
0.0 0.0014201047844221814
0.0 0.0013214540993332039
0.0 0.0012328115624666534
0.0 0.0011532855725282423
0.0 0.0010819984154584706
0.0 0.0010186149050177822
0.0 0.0009628425599868525
0.0 0.0009141919263208155
0.0 0.0008720359454355517
0.0 0.000836122556456704
0.0 0.0008060093057646957
0.0 0.0007807293249274932
0.0 0.000760529819517313
0.0 0.0007437952365387026
0.0 0.0007310735758973927
0.0 0.0007217169744517172
0.0 0.0007149278844290034
0.0 0.0007103237726662666
0.0 0.0007070532242929371
0.0 0.0007050994766037392
0.0 0.0007037971643199389
0.0 0.0007029147270556547
0.0 0.000702070928999887
0.0 0.000701270007959716
0.0 0.0007002862863304703
0.0 0.0006990744530531312
0.0 0.0006976236947508063
0.0 0.0006958105073605738
0.0 0.0006939566739769432
0.0 0.0006920058391079959
0.0 0.0006899572260060118
1.5883254069216357e-17 0.004927245132661818
8.028530251669371e-11 0.0027738746403682684
7.58175742319825e-06 0.0015411651454767074
2.9376543716541603e-05 0.0009317500388158272
4.6361553267082725e-08 0.001404224057913634
4.409071632547491e-17 0.002259784942604747
4.55263769898053e-05 0.0005993321910615538
3.431948434430091e-12 0.0012867734747532271
8.837463178670535e-06 0.0007824284691649856
1.6072207956269052e-06 0.0007704245351293266
5.719541311688259e-08 0.0007097697705444381
4.890047562589875e-10 0.0006767769798250849
9.882141675004258e-17 0.014973736461408206
1.5649896199622467e-12 0.0006657294863601
9.199925795541862e-06 0.00045269181902390953
5.090642896978895e-06 0.0004364604188055486
2.730138997210727e-17 0.0011704180815624466
5.833377965747492e-05 0.0005281487761241191
4.308128926376981e-06 0.0003903675170929449
3.038319777785058e-06 0.0004233104794179687
1.0287426812651956e-06 0.00040058443347801303
1.8156486717642348e-07 0.00037729485784888435
2.031357087760122e-08 0.00037799423654330777
4.000503786247005e-15 0.0006414990043908302
1.7645394370605463e-09 0.00035247031307237355
7.890333351741181e-11 0.00039119165984118515
-1.2230858410546432e-16 0.04847397115433134
7.273741120071752e-06 0.00030116394072686453
-9.458677243288078e-06 0.0002512961428978317
4.761573075108973e-12 0.0003340075306872305
1.299279911106881e-13 0.0003955732174116299
7.00806399590314e-17 0.00798949711475722
-2.910623694579395e-17 0.0037118346624275965
-8.674629719413596e-06 0.0002222996775957509
-3.526801326209845e-06 0.00022966717544457922