# vtk DataFile Version 3.0
Some data
ASCII
DATASET UNSTRUCTURED_GRID
POINTS 7930 float
0.0 0.0 0.0
0.0 10.0 0.0
10.0 10.0 0.0
10.0 0.0 0.0
0.5 0.0 0.0
0.0009999999999981016 0.0 0.0
0.001999999999996203 0.0 0.0
0.002999999999994305 0.0 0.0
0.003999999999992409 0.0 0.0
0.004999999999990531 0.0 0.0
0.005999999999988653 0.0 0.0
0.006999999999986775 0.0 0.0
0.007999999999984898 0.0 0.0
0.008999999999983018 0.0 0.0
0.009999999999981142 0.0 0.0
0.01099999999997926 0.0 0.0
0.01199999999997736 0.0 0.0
0.0129999999999754 0.0 0.0
0.01399999999997343 0.0 0.0
0.01499999999997147 0.0 0.0
0.01599999999996944 0.0 0.0
0.0169999999999673 0.0 0.0
0.01799999999996516 0.0 0.0
0.01899999999996302 0.0 0.0
0.01999999999996084 0.0 0.0
0.02099999999995862 0.0 0.0
0.02199999999995639 0.0 0.0
0.02299999999995417 0.0 0.0
0.02399999999995195 0.0 0.0
0.02499999999994972 0.0 0.0
0.0259999999999475 0.0 0.0
0.02699999999994527 0.0 0.0
0.02799999999994315 0.0 0.0
0.0289999999999411 0.0 0.0
0.02999999999993905 0.0 0.0
0.030999999999937 0.0 0.0
0.03199999999993521 0.0 0.0
0.0329999999999335 0.0 0.0
0.0339999999999318 0.0 0.0
0.03499999999993009 0.0 0.0
0.03599999999992853 0.0 0.0
0.036999999999927 0.0 0.0
0.03799999999992547 0.0 0.0
0.03899999999992394 0.0 0.0
0.03999999999992241 0.0 0.0
0.04099999999992088 0.0 0.0
0.04199999999991934 0.0 0.0
0.04299999999991782 0.0 0.0
0.04399999999991629 0.0 0.0
0.04499999999991475 0.0 0.0
0.04599999999991322 0.0 0.0
0.0469999999999117 0.0 0.0
0.04799999999991016 0.0 0.0
0.04899999999990863 0.0 0.0
0.0499999999999071 0.0 0.0
0.05099999999990557 0.0 0.0
0.05199999999990404 0.0 0.0
0.05299999999990251 0.0 0.0
0.05399999999990097 0.0 0.0
0.05499999999989943 0.0 0.0
0.05599999999989791 0.0 0.0
0.05699999999989638 0.0 0.0
0.05799999999989484 0.0 0.0
0.05899999999989317 0.0 0.0
0.05999999999989129 0.0 0.0
0.06099999999988941 0.0 0.0
0.06199999999988753 0.0 0.0
0.06299999999988531 0.0 0.0
0.06399999999988273 0.0 0.0
0.06499999999988015 0.0 0.0
0.06599999999987759 0.0 0.0
0.0669999999998748 0.0 0.0
0.06799999999987189 0.0 0.0
0.06899999999986897 0.0 0.0
0.06999999999986604 0.0 0.0
0.07099999999986313 0.0 0.0
0.0719999999998602 0.0 0.0
0.07299999999985729 0.0 0.0
0.07399999999985438 0.0 0.0
0.07499999999985145 0.0 0.0
0.07599999999984854 0.0 0.0
0.07699999999984562 0.0 0.0
0.0779999999998427 0.0 0.0
0.07899999999983978 0.0 0.0
0.07999999999983685 0.0 0.0
0.08099999999983394 0.0 0.0
0.08199999999983103 0.0 0.0
0.0829999999998281 0.0 0.0
0.08399999999982519 0.0 0.0
0.08499999999982226 0.0 0.0
0.08599999999981935 0.0 0.0
0.08699999999981643 0.0 0.0
0.0879999999998135 0.0 0.0
0.08899999999981059 0.0 0.0
0.08999999999980766 0.0 0.0
0.09099999999980475 0.0 0.0
0.09199999999980184 0.0 0.0
0.09299999999979891 0.0 0.0
0.093999999999796 0.0 0.0
0.09499999999979307 0.0 0.0
0.09599999999979016 0.0 0.0
0.09699999999978724 0.0 0.0
0.09799999999978432 0.0 0.0
0.0989999999997814 0.0 0.0
0.09999999999977847 0.0 0.0
0.1009999999997756 0.0 0.0
0.1019999999997726 0.0 0.0
0.1029999999997697 0.0 0.0
0.1039999999997668 0.0 0.0
0.1049999999997639 0.0 0.0
0.105999999999761 0.0 0.0
0.106999999999758 0.0 0.0
0.1079999999997551 0.0 0.0
0.1089999999997522 0.0 0.0
0.1099999999997493 0.0 0.0
0.1109999999997464 0.0 0.0
0.1119999999997434 0.0 0.0
0.1129999999997405 0.0 0.0
0.1139999999997376 0.0 0.0
0.1149999999997347 0.0 0.0
0.1159999999997318 0.0 0.0
0.1169999999997288 0.0 0.0
0.1179999999997259 0.0 0.0
0.118999999999723 0.0 0.0
0.1199999999997201 0.0 0.0
0.1209999999997172 0.0 0.0
0.1219999999997143 0.0 0.0
0.1229999999997113 0.0 0.0
0.1239999999997084 0.0 0.0
0.1249999999997055 0.0 0.0
0.1259999999997026 0.0 0.0
0.1269999999996997 0.0 0.0
0.1279999999996967 0.0 0.0
0.1289999999996938 0.0 0.0
0.1299999999996909 0.0 0.0
0.130999999999688 0.0 0.0
0.1319999999996851 0.0 0.0
0.1329999999996822 0.0 0.0
0.1339999999996792 0.0 0.0
0.1349999999996764 0.0 0.0
0.1359999999996734 0.0 0.0
0.1369999999996705 0.0 0.0
0.1379999999996676 0.0 0.0
0.1389999999996647 0.0 0.0
0.1399999999996618 0.0 0.0
0.1409999999996588 0.0 0.0
0.1419999999996559 0.0 0.0
0.142999999999653 0.0 0.0
0.1439999999996501 0.0 0.0
0.1449999999996472 0.0 0.0
0.1459999999996442 0.0 0.0
0.1469999999996414 0.0 0.0
0.1479999999996384 0.0 0.0
0.1489999999996355 0.0 0.0
0.1499999999996326 0.0 0.0
0.1509999999996297 0.0 0.0
0.1519999999996268 0.0 0.0
0.1529999999996239 0.0 0.0
0.1539999999996209 0.0 0.0
0.154999999999618 0.0 0.0
0.1559999999996151 0.0 0.0
0.1569999999996122 0.0 0.0
0.1579999999996093 0.0 0.0
0.1589999999996064 0.0 0.0
0.1599999999996035 0.0 0.0
0.1609999999996005 0.0 0.0
0.1619999999995976 0.0 0.0
0.1629999999995947 0.0 0.0
0.1639999999995918 0.0 0.0
0.1649999999995889 0.0 0.0
0.165999999999586 0.0 0.0
0.1669999999995831 0.0 0.0
0.1679999999995801 0.0 0.0
0.1689999999995772 0.0 0.0
0.1699999999995743 0.0 0.0
0.1709999999995714 0.0 0.0
0.1719999999995685 0.0 0.0
0.1729999999995655 0.0 0.0
0.1739999999995626 0.0 0.0
0.1749999999995597 0.0 0.0
0.1759999999995568 0.0 0.0
0.1769999999995539 0.0 0.0
0.177999999999551 0.0 0.0
0.178999999999548 0.0 0.0
0.1799999999995451 0.0 0.0
0.1809999999995422 0.0 0.0
0.1819999999995393 0.0 0.0
0.1829999999995364 0.0 0.0
0.1839999999995335 0.0 0.0
0.1849999999995305 0.0 0.0
0.1859999999995277 0.0 0.0
0.1869999999995247 0.0 0.0
0.1879999999995218 0.0 0.0
0.1889999999995189 0.0 0.0
0.189999999999516 0.0 0.0
0.1909999999995131 0.0 0.0
0.1919999999995101 0.0 0.0
0.1929999999995072 0.0 0.0
0.1939999999995043 0.0 0.0
0.1949999999995014 0.0 0.0
0.1959999999994985 0.0 0.0
0.1969999999994956 0.0 0.0
0.1979999999994927 0.0 0.0
0.1989999999994897 0.0 0.0
0.1999999999994868 0.0 0.0
0.2009999999994839 0.0 0.0
0.201999999999481 0.0 0.0
0.2029999999994781 0.0 0.0
0.2039999999994752 0.0 0.0
0.2049999999994722 0.0 0.0
0.2059999999994693 0.0 0.0
0.2069999999994664 0.0 0.0
0.2079999999994635 0.0 0.0
0.2089999999994606 0.0 0.0
0.2099999999994577 0.0 0.0
0.2109999999994548 0.0 0.0
0.2119999999994518 0.0 0.0
0.2129999999994489 0.0 0.0
0.213999999999446 0.0 0.0
0.2149999999994431 0.0 0.0
0.2159999999994402 0.0 0.0
0.2169999999994373 0.0 0.0
0.2179999999994343 0.0 0.0
0.2189999999994314 0.0 0.0
0.2199999999994285 0.0 0.0
0.2209999999994256 0.0 0.0
0.2219999999994227 0.0 0.0
0.2229999999994198 0.0 0.0
0.2239999999994168 0.0 0.0
0.2249999999994139 0.0 0.0
0.225999999999411 0.0 0.0
0.2269999999994081 0.0 0.0
0.2279999999994052 0.0 0.0
0.2289999999994023 0.0 0.0
0.2299999999993994 0.0 0.0
0.2309999999993964 0.0 0.0
0.2319999999993935 0.0 0.0
0.2329999999993906 0.0 0.0
0.2339999999993877 0.0 0.0
0.2349999999993848 0.0 0.0
0.2359999999993818 0.0 0.0
0.236999999999379 0.0 0.0
0.237999999999376 0.0 0.0
0.2389999999993731 0.0 0.0
0.2399999999993702 0.0 0.0
0.2409999999993673 0.0 0.0
0.2419999999993644 0.0 0.0
0.2429999999993615 0.0 0.0
0.2439999999993585 0.0 0.0
0.2449999999993556 0.0 0.0
0.2459999999993527 0.0 0.0
0.246999999999351 0.0 0.0
0.2479999999993495 0.0 0.0
0.248999999999348 0.0 0.0
0.2499999999993464 0.0 0.0
0.2509999999993477 0.0 0.0
0.2519999999993489 0.0 0.0
0.2529999999993502 0.0 0.0
0.2539999999993516 0.0 0.0
0.2549999999993542 0.0 0.0
0.2559999999993569 0.0 0.0
0.2569999999993595 0.0 0.0
0.2579999999993621 0.0 0.0
0.2589999999993647 0.0 0.0
0.2599999999993673 0.0 0.0
0.26099999999937 0.0 0.0
0.2619999999993726 0.0 0.0
0.2629999999993753 0.0 0.0
0.2639999999993779 0.0 0.0
0.2649999999993806 0.0 0.0
0.2659999999993832 0.0 0.0
0.2669999999993858 0.0 0.0
0.2679999999993884 0.0 0.0
0.2689999999993911 0.0 0.0
0.2699999999993937 0.0 0.0
0.2709999999993963 0.0 0.0
0.271999999999399 0.0 0.0
0.2729999999994017 0.0 0.0
0.2739999999994043 0.0 0.0
0.2749999999994069 0.0 0.0
0.2759999999994096 0.0 0.0
0.2769999999994122 0.0 0.0
0.2779999999994148 0.0 0.0
0.2789999999994174 0.0 0.0
0.2799999999994201 0.0 0.0
0.2809999999994228 0.0 0.0
0.2819999999994254 0.0 0.0
0.282999999999428 0.0 0.0
0.2839999999994306 0.0 0.0
0.2849999999994333 0.0 0.0
0.2859999999994359 0.0 0.0
0.2869999999994385 0.0 0.0
0.2879999999994411 0.0 0.0
0.2889999999994439 0.0 0.0
0.2899999999994465 0.0 0.0
0.2909999999994491 0.0 0.0
0.2919999999994517 0.0 0.0
0.2929999999994544 0.0 0.0
0.293999999999457 0.0 0.0
0.2949999999994596 0.0 0.0
0.2959999999994622 0.0 0.0
0.2969999999994649 0.0 0.0
0.2979999999994676 0.0 0.0
0.2989999999994702 0.0 0.0
0.2999999999994728 0.0 0.0
0.3009999999994754 0.0 0.0
0.3019999999994781 0.0 0.0
0.3029999999994807 0.0 0.0
0.3039999999994834 0.0 0.0
0.304999999999486 0.0 0.0
0.3059999999994886 0.0 0.0
0.3069999999994913 0.0 0.0
0.3079999999994939 0.0 0.0
0.3089999999994965 0.0 0.0
0.3099999999994992 0.0 0.0
0.3109999999995018 0.0 0.0
0.3119999999995045 0.0 0.0
0.3129999999995071 0.0 0.0
0.3139999999995097 0.0 0.0
0.3149999999995123 0.0 0.0
0.315999999999515 0.0 0.0
0.3169999999995176 0.0 0.0
0.3179999999995203 0.0 0.0
0.3189999999995229 0.0 0.0
0.3199999999995256 0.0 0.0
0.3209999999995282 0.0 0.0
0.3219999999995308 0.0 0.0
0.3229999999995334 0.0 0.0
0.323999999999536 0.0 0.0
0.3249999999995387 0.0 0.0
0.3259999999995414 0.0 0.0
0.326999999999544 0.0 0.0
0.3279999999995466 0.0 0.0
0.3289999999995493 0.0 0.0
0.3299999999995519 0.0 0.0
0.3309999999995545 0.0 0.0
0.3319999999995571 0.0 0.0
0.3329999999995598 0.0 0.0
0.3339999999995625 0.0 0.0
0.3349999999995651 0.0 0.0
0.3359999999995677 0.0 0.0
0.3369999999995703 0.0 0.0
0.337999999999573 0.0 0.0
0.3389999999995756 0.0 0.0
0.3399999999995783 0.0 0.0
0.3409999999995809 0.0 0.0
0.3419999999995835 0.0 0.0
0.3429999999995862 0.0 0.0
0.3439999999995888 0.0 0.0
0.3449999999995914 0.0 0.0
0.345999999999594 0.0 0.0
0.3469999999995967 0.0 0.0
0.3479999999995994 0.0 0.0
0.348999999999602 0.0 0.0
0.3499999999996046 0.0 0.0
0.3509999999996072 0.0 0.0
0.3519999999996099 0.0 0.0
0.3529999999996125 0.0 0.0
0.3539999999996151 0.0 0.0
0.3549999999996178 0.0 0.0
0.3559999999996205 0.0 0.0
0.3569999999996231 0.0 0.0
0.3579999999996257 0.0 0.0
0.3589999999996283 0.0 0.0
0.359999999999631 0.0 0.0
0.3609999999996336 0.0 0.0
0.3619999999996362 0.0 0.0
[...]
POINT_DATA 7930
SCALARS Disp float 2
LOOKUP_TABLE default
0.0 0.002054691622773727
0.0 0.1
0.0 0.1
0.0 0.0
4.0907812034461225e-06 0.0
-6.861300427855041e-06 0.0020545548718839957
-1.3746641969033607e-05 0.0020543451708561235
-2.0604477150556914e-05 0.002053672786709427
-2.736755436717557e-05 0.0020526141905160343
-3.416597203160263e-05 0.002051864389479909
-4.11523926949599e-05 0.0020510961066761636
-4.7879948819382926e-05 0.0020491091220635883
-5.4330820700453394e-05 0.002047013985605732
-6.125734944151923e-05 0.002046119629285766
-6.861269710715912e-05 0.0020451206440539557
-7.56500499870595e-05 0.0020416766912430126
-8.180631259806683e-05 0.002038112047675846
-8.840963544484091e-05 0.0020365644546971903
-9.59263361258463e-05 0.0020351160902232625
-0.00010326085232795401 0.002031026620497045
-0.0001095293123859659 0.002026005728852826
-0.00011594527222853904 0.002023256072087865
-0.0001235466432118006 0.0020209653922794984
-0.00013097244020171585 0.0020158548779433175
-0.00013703262695952977 0.002009429883951839
-0.0001433295490971051 0.0020061979182238667
-0.0001510044560037521 0.002003419088274934
-0.0001585098576873679 0.001997205726150828
-0.00016455531962099602 0.001989544718433181
-0.0001705723761436803 0.0019851204773209093
-0.00017820079520535254 0.001981940836941623
-0.000185550528056232 0.001974868623713464
-0.0001916803527789735 0.001966168976204914
-0.0001977930758315284 0.001960511067291775
-0.00020536163578457686 0.0019563966175013773
-0.0002129105340415191 0.001948812033893796
-0.00021924081769147743 0.0019387387786162578
-0.00022515027812243778 0.0019317410270876605
-0.00023237520873929904 0.001927089208961874
-0.00023993451993589745 0.001918448057460272
-0.00024614888839341863 0.0019071681060406293
-0.00025198229135178524 0.0018992919360979244
-0.0002594299389209894 0.0018940724416277243
-0.00026725973476876764 0.0018847827713150281
-0.0002736492213493177 0.0018720008118767696
-0.00027946541633638633 0.0018626770169957768
-0.0002867642018388487 0.0018564676391729046
-0.0002946249115759153 0.0018459187931736535
-0.0003010804439536556 0.0018316466955744916
-0.00030661779225576823 0.00182071201816813
-0.00031375528827991994 0.0018136543203934536
-0.00032198766274718843 0.001802822491767261
-0.00032853023631050377 0.0017870629824445867
-0.0003340724244758855 0.0017745289780257004
-0.00034105127196481534 0.0017661059147879032
-0.0003493332712223705 0.0017540282781698666
-0.00035591385055825194 0.0017368682650894165
-0.0003611801518286933 0.0017224214451598964
-0.0003679276714034035 0.0017131107628801958
-0.00037637552377403275 0.001700004479355476
-0.00038330254436522165 0.0016812629396461877
-0.0003887335489102893 0.0016651163308286706
-0.0003953563958112501 0.0016541300145143877
-0.0004039319217037524 0.001639931982964432
-0.0004109331011389108 0.0016195681684996173
-0.00041647233481296775 0.001600981898745201
-0.0004231074544232048 0.0015878468771179373
-0.0004313111448510706 0.0015718386539678234
-0.0004382623769047361 0.0015495479194151864
-0.0004434518723001931 0.001529038005241291
-0.00044979992246810453 0.0015143093907217088
-0.00045802730254680544 0.001497093325510915
-0.00046526921650700745 0.0014729256442903578
-0.0004706783514904551 0.0014498437679647171
-0.00047700234076538176 0.0014327227782383962
-0.00048527507465998535 0.0014134817295227877
-0.0004925841957317466 0.0013867395922063565
-0.0004981131828213244 0.0013606147997699046
-0.0005041548322278844 0.0013404845392296805
-0.0005125650610492817 0.0013186126572878678
-0.0005200545490289645 0.0012888745777854622
-0.0005253184893234392 0.0012590335023776207
-0.000531326507229762 0.0012357692101003374
-0.0005399030815619927 0.001210928754993262
-0.0005478129485475897 0.0011774660575371808
-0.0005532733579778517 0.0011432418034554622
-0.0005588951227768684 0.001114847077143922
-0.0005672943089907657 0.0010852125734807665
-0.0005749814249810661 0.0010468147643392905
-0.0005804552523470312 0.0010061560479181636
-0.0005859320178795106 0.0009717271134144646
-0.0005934459830662815 0.0009362191663051987
-0.0006018931262852556 0.0008901602287523386
-0.0006075909735216079 0.0008402673564833174
-0.0006129503089193039 0.0007952892826663417
-0.0006205565849236037 0.0007481455129273347
-0.0006291779694344891 0.000688560942086227
-0.0006344408387349281 0.000621625085077409
-0.0006403815655078798 0.0005542148163478496
-0.0006468287804567321 0.00047812372415550336
-0.0006492663555826731 0.00037769677117082794
-0.0006434405987283296 0.00023775119495354072
-0.0006163025363912092 0.0
-0.0005677054899621139 0.0
-0.0005314426172809862 0.0
-0.0005069716153146367 0.0
-0.0004865352060453898 0.0
-0.00046946364199379145 0.0
-0.00045471846818829874 0.0
-0.00044145127624128786 0.0
-0.0004291968004958557 0.0
-0.00041807587839706956 0.0
-0.00040805329217485334 0.0
-0.0003982501933251943 0.0
-0.0003892796138925483 0.0
-0.00038091597886825024 0.0
-0.00037295837043676384 0.0
-0.0003654492548942224 0.0
-0.0003583299417619864 0.0
-0.0003515037439093468 0.0
-0.0003450013661341624 0.0
-0.0003388042812705155 0.0
-0.00033286823958099767 0.0
-0.0003272362861372865 0.0
-0.00032165877441383254 0.0
-0.0003163856422075924 0.0
-0.00031126810731549917 0.0
-0.00030635582387556317 0.0
-0.00030155240473775407 0.0
-0.0002969340615421778 0.0
-0.0002924516804827064 0.0
-0.00028809997671196613 0.0
-0.00028387319596279647 0.0
-0.0002797733120259299 0.0
-0.00027578923082567 0.0
-0.0002719116957652661 0.0
-0.00026813452311946073 0.0
-0.0002644735846242703 0.0
-0.00026092744691842733 0.0
-0.00025742397160513397 0.0
-0.000254037714862971 0.0
-0.00025072314107408417 0.0
-0.00024749237556780606 0.0
-0.00024433377243083886 0.0
-0.00024124790673815073 0.0
-0.00023823585146389171 0.0
-0.0002352931523648109 0.0
-0.00023241469065439987 0.0
-0.00022958998349885323 0.0
-0.0002268276300130017 0.0
-0.00022412380710225347 0.0
-0.0002214717358801738 0.0
-0.0002188760743867029 0.0
-0.00021633115252531985 0.0
-0.00021383176362635884 0.0
-0.00021138069738726875 0.0
-0.0002089771717562906 0.0
-0.00020661584907781308 0.0
-0.0002042970067813138 0.0
-0.00020202501999077864 0.0
-0.00019980190132892493 0.0
-0.0001976012677113702 0.0
-0.00019545778725532068 0.0
-0.0001933468301417065 0.0
-0.00019127259046844167 0.0
-0.00018924066650193882 0.0
-0.000187222411260138 0.0
-0.00018525316366651456 0.0
-0.00018331300899127306 0.0
-0.00018140081256995023 0.0
-0.0001795191023331171 0.0
-0.00017766470837294468 0.0
-0.00017583631503162854 0.0
-0.00017403235258650485 0.0
-0.00017225393828115438 0.0
-0.00017049934537309474 0.0
-0.0001687657722517417 0.0
-0.0001670588243549075 0.0
-0.00016537793232477107 0.0
-0.000163718888555933 0.0
-0.00016208191373405398 0.0
-0.00016046936577021487 0.0
-0.00015888153646355564 0.0
-0.0001573127267371839 0.0
-0.00015576603315454104 0.0
-0.00015424247305528724 0.0
-0.0001527385371570397 0.0
-0.00015125405592433883 0.0
-0.0001497895817730094 0.0
-0.00014834625432010558 0.0
-0.00014691934112560486 0.0
-0.00014551077438191385 0.0
-0.00014411959599253124 0.0
-0.00014274475499682267 0.0
-0.0001413874135916243 0.0
-0.0001400475202695908 0.0
-0.00013872192614456348 0.0
-0.0001374121174171685 0.0
-0.00013611688802220707 0.0
-0.00013483682980003947 0.0
-0.00013357361353490672 0.0
-0.00013232429855032055 0.0
-0.0001310883396185328 0.0
-0.0001298685190237445 0.0
-0.0001286613691765602 0.0
-0.00012746847050591474 0.0
-0.0001262905652006779 0.0
-0.00012512633420224512 0.0
-0.00012397462517861938 0.0
-0.00012283852031407536 0.0
-0.0001217106732858844 0.0
-0.00012059544167848549 0.0
-0.00011949241180837208 0.0
-0.00011840239243960857 0.0
-0.00011732296516834973 0.0
-0.0001162544802561228 0.0
-0.00011519719497419117 0.0
-0.00011414941469681893 0.0
-0.00011311156913259432 0.0
-0.00011208759342075767 0.0
-0.00011106711626624031 0.0
-0.0001100591160953255 0.0
-0.00010906139293221291 0.0
-0.00010807163101299734 0.0
-0.00010709145818851451 0.0
-0.00010612083570367898 0.0
-0.00010515924198553145 0.0
-0.0001042064167579052 0.0
-0.00010326294582090608 0.0
-0.00010232863299658978 0.0
-0.00010140287491242676 0.0
-0.00010048671502888038 0.0
-9.957914773789276e-05 0.0
-9.868022647756174e-05 0.0
-9.779055605633987e-05 0.0
-9.690883245629352e-05 0.0
-9.603492111914746e-05 0.0
-9.516999761866562e-05 0.0
-9.431359439698739e-05 0.0
-9.346445450516912e-05 0.0
-9.262447337136945e-05 0.0
-9.179216273250933e-05 0.0
-9.096831111304148e-05 0.0
-9.015247300055215e-05 0.0
-8.934431321597513e-05 0.0
-8.85436605440805e-05 0.0
-8.775057344083626e-05 0.0
-8.696537161457686e-05 0.0
-8.618706090832083e-05 0.0
-8.541626564260943e-05 0.0
-8.46536882039052e-05 0.0
-8.389726647544658e-05 0.0
-8.314771966820317e-05 0.0
-8.240575416565321e-05 0.0
-8.167027475541697e-05 0.0
-8.094137400489405e-05 0.0
-8.021879779662017e-05 0.0
-7.950189472996565e-05 0.0
-7.879103764418315e-05 0.0
-7.808640818834376e-05 0.0
-7.738692132702022e-05 0.0
-7.669290996738433e-05 0.0
-7.600411970554273e-05 0.0
-7.532065911706056e-05 0.0
-7.464239994935056e-05 0.0
-7.396914092613321e-05 0.0
-7.330060453817156e-05 0.0
-7.263665383947952e-05 0.0
-7.197772410958999e-05 0.0
-7.13234008986296e-05 0.0
-7.06741166038348e-05 0.0
-7.002984792345132e-05 0.0
-6.939047952861174e-05 0.0
-6.875433272399905e-05 0.0
-6.812560250566022e-05 0.0
-6.749974491699911e-05 0.0
-6.688066140393379e-05 0.0
-6.626468226061815e-05 0.0
-6.56540222023605e-05 0.0
-6.504837792287509e-05 0.0
-6.444778607231287e-05 0.0
-6.385212426202614e-05 0.0
-6.326108921015505e-05 0.0
-6.267487155503709e-05 0.0
-6.209341447330589e-05 0.0
-6.15163150084101e-05 0.0
-6.0943343726483565e-05 0.0
-6.037473574452686e-05 0.0
-5.981026898256637e-05 0.0
-5.924951537103563e-05 0.0
-5.86926122241818e-05 0.0
-5.8139555732593726e-05 0.0
-5.759021955105228e-05 0.0
-5.704457808812612e-05 0.0
-5.650037254624234e-05 0.0
-5.5960867487537675e-05 0.0
-5.542458544154723e-05 0.0
-5.489147569653283e-05 0.0
-5.43626213289949e-05 0.0
-5.383540487188145e-05 0.0
-5.3311805166074444e-05 0.0
-5.279180337005341e-05 0.0
-5.2275414290389094e-05 0.0
-5.176231364080397e-05 0.0
-5.125278556173198e-05 0.0
-5.074680815977894e-05 0.0
-5.0244781464456895e-05 0.0
-4.974652670384735e-05 0.0
-4.9252156120653164e-05 0.0
-4.876187910334627e-05 0.0
-4.8275809280231974e-05 0.0
-4.779396722416054e-05 0.0
-4.731469708553607e-05 0.0
-4.684034091660289e-05 0.0
-4.637020101441558e-05 0.0
-4.590422753826616e-05 0.0
-4.544306303576369e-05 0.0
-4.498403713702632e-05 0.0
-4.4528986269244806e-05 0.0
-4.4077796405099635e-05 0.0
-4.3630229565829475e-05 0.0
-4.318597024449923e-05 0.0
-4.2745411654405033e-05 0.0
-4.2307879416377624e-05 0.0
-4.1873435618663914e-05 0.0
-4.1441729933946245e-05 0.0
-4.101278264262632e-05 0.0
-4.058652605839228e-05 0.0
-4.0162560458662965e-05 0.0
-3.974109347618453e-05 0.0
-3.932234225603228e-05 0.0
-3.8905499115660465e-05 0.0
-3.849079706912902e-05 0.0
-3.807850937602888e-05 0.0
-3.766836103063541e-05 0.0
-3.7260240954870584e-05 0.0
-3.6854411921335234e-05 0.0
-3.645062722326528e-05 0.0
-3.604921600361152e-05 0.0
-3.5650050328016324e-05 0.0
-3.525313592184647e-05 0.0
-3.485849857051991e-05 0.0
-3.4466276748025834e-05 0.0
-3.407672080658656e-05 0.0
-3.368975815862724e-05 0.0
-3.3305324626575364e-05 0.0
-3.292345936295097e-05 0.0
-3.254439062310611e-05 0.0
-3.216809552110801e-05 0.0
-3.179445851691886e-05 0.0
-3.1423719734928564e-05 0.0
-3.105585621637865e-05 0.0
-3.069078990011443e-05 0.0
-3.032838047510223e-05 0.0
-2.9968773737894768e-05 0.0
-2.96119359030566e-05 0.0
-2.9257573639876083e-05 0.0
-2.890594240034477e-05 0.0
-2.855674820553036e-05 0.0
-2.8209939850672955e-05 0.0
-2.7865469310176504e-05 0.0
-2.752328911247421e-05 0.0
-2.718336960687561e-05 0.0
-2.684549898768141e-05 0.0
-2.6509617768240487e-05 0.0
-2.6175716150794668e-05 0.0
-2.5843669646000153e-05 0.0
-2.5513494305945284e-05 0.0
-2.518508631749826e-05 0.0
-2.485837674753032e-05 0.0
-2.4533314177126915e-05 0.0
-2.4209947412526633e-05 0.0
-2.3888272599579824e-05 0.0
-2.3568310026299824e-05 0.0
-2.3249220161152984e-05 0.0
-2.293218915505471e-05 0.0
-2.2616855714171635e-05 0.0
-2.2303175181156294e-05 0.0
-2.1991205588529633e-05 0.0
-2.168100319665054e-05 0.0
-2.1372587497727934e-05 0.0
-2.1065961193602727e-05 0.0
-2.0761293711898003e-05 0.0
-2.0458441897369624e-05 0.0
-2.0157645484650644e-05 0.0
-1.985901223790248e-05 0.0
-1.9562435403851967e-05 0.0
-1.926797759623369e-05 0.0
-1.8975881728770008e-05 0.0
-1.8685888262067387e-05 0.0
-1.839816857541043e-05 0.0
-1.8112700948737993e-05 0.0
-1.7829560949326582e-05 0.0
-1.7548630715671302e-05 0.0
-1.7270032195895885e-05 0.0
-1.6993801811000568e-05 0.0
-1.6719707069381676e-05 0.0
-1.6447833555472815e-05 0.0
-1.617817218205469e-05 0.0
-1.591060953205552e-05 0.0
-1.5645145369687618e-05 0.0
-1.5381710037469813e-05 0.0
-1.5120208002669656e-05 0.0
-1.48605153965631e-05 0.0
-1.4602789710166838e-05 0.0
-1.4346747966374427e-05 0.0
-1.4092334648703823e-05 0.0
-1.3839580936555838e-05 0.0
-1.3588426705923695e-05 0.0
-1.3338680176528515e-05 0.0
-1.3090305170685786e-05 0.0
-1.2843311124713936e-05 0.0
-1.2597672314314045e-05 0.0
-1.2353205965755014e-05 0.0
-1.2109952201927662e-05 0.0
-1.1867801456674467e-05 0.0
-1.1626736083096277e-05 0.0
-1.1386922196521857e-05 0.0
-1.1148328468498e-05 0.0
-1.0910822975583257e-05 0.0
-1.0674511581893555e-05 0.0
-1.0439378859548903e-05 0.0
-1.020540077751745e-05 0.0
-9.972658754256587e-06 0.0
-9.741093487574927e-06 0.0
-9.510873513697944e-06 0.0
-9.282048264258774e-06 0.0
-9.05457718231979e-06 0.0
-8.82848345447303e-06 0.0
-8.60395160710232e-06 0.0
-8.381015092755577e-06 0.0
-8.15963234181586e-06 0.0
-7.939871650695214e-06 0.0
-7.721738929531747e-06 0.0
-7.505369418598419e-06 0.0
-7.290779049312045e-06 0.0
-7.077906720822773e-06 0.0
-6.866867212309749e-06 0.0
-6.6578306841669925e-06 0.0
-6.450417101439041e-06 0.0
-6.244956588584767e-06 0.0
-6.0413922278676465e-06 0.0
-5.839757205148181e-06 0.0
-5.639933302402739e-06 0.0
-5.44182452699479e-06 0.0
-5.245625784183004e-06 0.0
-5.0512398441658e-06 0.0
-4.858656631657252e-06 0.0
-4.6678620275543825e-06 0.0
-4.478509953309305e-06 0.0
-4.290794397557777e-06 0.0
-4.104684951732384e-06 0.0
-3.9200756560675405e-06 0.0
-3.73684850386392e-06 0.0
-3.5550633494673733e-06 0.0
-3.374574162683243e-06 0.0
-3.195303435565794e-06 0.0
-3.0172408576608754e-06 0.0
-2.8402939357843363e-06 0.0
-2.6644844834978705e-06 0.0
-2.489738950902873e-06 0.0
-2.316060929374531e-06 0.0
-2.1431943329705183e-06 0.0
-1.9713927330293786e-06 0.0
-1.800514760750582e-06 0.0
-1.630583617956342e-06 0.0
-1.4614856492416647e-06 0.0
-1.2932674772378139e-06 0.0
-1.1258724942736171e-06 0.0
-9.593611201698522e-07 0.0
-7.937754464491615e-07 0.0
-6.290737370419498e-07 0.0
-4.6524330598892073e-07 0.0
-3.0235682779739877e-07 0.0
-1.4038364961531273e-07 0.0
2.0578032985795977e-08 0.0
1.8051254269282388e-07 0.0
3.393452681929459e-07 0.0
4.970651195267775e-07 0.0
6.536389324899995e-07 0.0
8.089608132412833e-07 0.0
9.630239376677055e-07 0.0
1.1157881669260118e-06 0.0
1.2672343330080132e-06 0.0
1.4173230689915933e-06 0.0
1.5659828113467572e-06 0.0
1.713148313697511e-06 0.0
1.8587953952229795e-06 0.0
2.0030338237939288e-06 0.0
2.145636128120099e-06 0.0
2.286632342513989e-06 0.0
2.4260453547160754e-06 0.0
2.5637171092227013e-06 0.0
2.6999151414223776e-06 0.0
2.834502574481225e-06 0.0
2.9674091721355613e-06 0.0
3.0986752775700427e-06 0.0
3.2284082430843473e-06 0.0
3.3564643771518665e-06 0.0
3.4828564184717684e-06 0.0
3.6075608099365076e-06 0.0
3.730703632748991e-06 0.0
3.8524006882182335e-06 0.0
3.972365303307632e-06 0.0
4.211908961906514e-06 0.0
4.3417046224007265e-06 0.0
4.480758606958455e-06 0.0
4.6295152318222955e-06 0.0
4.7883946039256365e-06 0.0
4.95791202793403e-06 0.0
5.138433172183314e-06 0.0
5.330202156339735e-06 0.0
5.533589094862602e-06 0.0
5.748637965039561e-06 0.0
5.975170477658421e-06 0.0
6.21322724898295e-06 0.0
6.461172546392376e-06 0.0
6.71875377883993e-06 0.0
6.983292783913817e-06 0.0
7.251139854098604e-06 0.0
7.516353082934835e-06 0.0
7.775663304774506e-06 0.0
8.020579487991871e-06 0.0
8.249403979823098e-06 0.0
8.45585192009612e-06 0.0
8.636678460419244e-06 0.0
8.78784728563473e-06 0.0
8.921271236599502e-06 0.0
9.026622613729414e-06 0.0
9.101661847344567e-06 0.0
9.121187049790571e-06 0.0
9.061140086142636e-06 0.0
8.907960573477937e-06 0.0
8.662653811069657e-06 0.0
8.349251249049776e-06 0.0
7.98210609584786e-06 0.0
7.53736256749366e-06 0.0
6.962380945228952e-06 0.0
6.244117602042982e-06 0.0
5.440450877660083e-06 0.0
4.626262004204295e-06 0.0
3.7808445297874755e-06 0.0
2.795422111513717e-06 0.0
1.7358258119906532e-06 0.0
8.243380965159618e-07 0.0
2.7383202409606973e-07 0.0
6.171682851353076e-08 0.0
6.360452486223783e-09 0.0
1.9319052639795353e-10 0.0
-1.3680472644484733e-12 0.0
-1.7311687822723515e-12 0.0
-2.5521325822625034e-13 0.0
8.186563795417288e-13 0.0
1.9187446169096037e-14 0.0
2.869010422975316e-14 0.0
2.2562701330824933e-14 0.0
1.1218873621838123e-14 0.0
8.584796800370281e-15 0.0
3.5913365037256926e-15 0.0
-1.4244968683478816e-15 0.0
-5.424046683038424e-16 0.0
1.0229386146401512e-16 0.0
3.3450774549728327e-16 0.0
2.4698133841999525e-16 0.0
2.684598338788319e-17 0.0
3.1856431812280106e-16 0.0
7.060597389828627e-16 0.0
3.2641719072967793e-17 0.0
-2.352973981813313e-16 0.0
-6.345582975459955e-16 0.0
-3.8654595551511604e-16 0.0
3.8652623497575266e-16 0.0
-1.769694276155156e-16 0.0
-3.6487653384737517e-16 0.0
8.430121198374785e-16 0.0
7.426039555612035e-16 0.0
-2.025060537284553e-15 0.0
8.187650749971629e-16 0.0
2.2055810956910166e-15 0.0
-2.643780766062766e-15 0.0
4.246052494304752e-16 0.0
1.357173236178329e-15 0.0
-1.941250415246879e-15 0.0
0.0 0.009234165287259606
0.0 0.022109785930464164
0.0 0.04006285207144764
0.0 0.0650956392630876
-2.859809918525487e-15 0.1
-3.762524999498364e-15 0.1
4.3143760377634075e-14 0.1
-4.427162017585057e-14 0.1
0.0 0.09234095951658107
0.0 0.0852677944370346
0.0 0.07873568783499299
0.0 0.07270325358165612
0.0 0.06713226878990748
0.0 0.0619874333109125
0.0 0.05723615233795417
0.0 0.05284831692952524
0.0 0.04879612844994241
0.0 0.0450539106578504
0.0 0.04159795282712955
0.0 0.03840635724257542
0.0 0.035458901718227104
0.0 0.03273691087333704
0.0 0.030223137736035847
0.0 0.02790165483821067
0.0 0.025757753001954414
0.0 0.023777848352137313
0.0 0.02194939580756707
0.0 0.02026081025636493
0.0 0.018701392225320843
0.0 0.017261261593935876
0.0 0.015931293308689375
0.0 0.01470306095913739
0.0 0.013568779939576555
0.0 0.012521274583172128
0.0 0.01155385860323175
0.0 0.010660568705873731
0.0 0.009835332930648777
0.0 0.009073179967232687
0.0 0.008374611276591724
0.0 0.007733741452145014
0.0 0.007146452881446123
0.0 0.006607364183370926
0.0 0.006114124778867578
0.0 0.005664107704270679
0.0 0.00525415266555059
0.0 0.004881423162004749
0.0 0.004543581294230026
0.0 0.004236764830220642
0.0 0.003959104280571644
0.0 0.0037086397421540788
0.0 0.003483081972022912
0.0 0.0032810547053730033
0.0 0.003101631374583294
0.0 0.0029421284786152594
0.0 0.002801456781737245
0.0 0.002678542558452612
0.0 0.0025714988942717168
0.0 0.0024797614482580713
0.0 0.002402670630853168
0.0 0.002337258602330486
0.0 0.002282921862006106
0.0 0.002239135448878887
0.0 0.002203260331405138
0.0 0.002175348757380482
0.0 0.0021539252869120697
0.0 0.0021380466956745104
0.0 0.0021262222300925298
0.0 0.0021177163916140003
0.0 0.0021116484199745103
0.0 0.0021073932579521596
0.0 0.002104600270795652
0.0 0.0021019268923779975
0.0 0.002100531535792731
0.0 0.002098450176641928
0.0 0.002096773004021808
0.0 0.002095059033669668
0.0 0.0020931908533856026
0.0 0.002091164709428063
0.0 0.0020888215859272224
0.0 0.0020863631603251173
0.0 0.002083719904092098
0.0 0.002081009866630982
0.0 0.002078202123532046
0.0 0.002075438933673088
0.0 0.0020726660435808
0.0 0.0020699137251018523
0.0 0.00206718902846479
0.0 0.0020644419130398787
0.0 0.00206183457103566
0.0 0.0020593646885830714
0.0 0.002056988737562339
1.3717536778206115e-05 0.00493774556500634
8.465518635664323e-05 0.0028439344511744288
0.0001363881062755645 0.0018178657256997515