# vtk DataFile Version 3.0
Some data
ASCII
DATASET UNSTRUCTURED_GRID
POINTS 7930 float
0.0 0.0 0.0
0.0 10.0 0.0
10.0 10.0 0.0
10.0 0.0 0.0
0.5 0.0 0.0
0.0009999999999981016 0.0 0.0
0.001999999999996203 0.0 0.0
0.002999999999994305 0.0 0.0
0.003999999999992409 0.0 0.0
0.004999999999990531 0.0 0.0
0.005999999999988653 0.0 0.0
0.006999999999986775 0.0 0.0
0.007999999999984898 0.0 0.0
0.008999999999983018 0.0 0.0
0.009999999999981142 0.0 0.0
0.01099999999997926 0.0 0.0
0.01199999999997736 0.0 0.0
0.0129999999999754 0.0 0.0
0.01399999999997343 0.0 0.0
0.01499999999997147 0.0 0.0
0.01599999999996944 0.0 0.0
0.0169999999999673 0.0 0.0
0.01799999999996516 0.0 0.0
0.01899999999996302 0.0 0.0
0.01999999999996084 0.0 0.0
0.02099999999995862 0.0 0.0
0.02199999999995639 0.0 0.0
0.02299999999995417 0.0 0.0
0.02399999999995195 0.0 0.0
0.02499999999994972 0.0 0.0
0.0259999999999475 0.0 0.0
0.02699999999994527 0.0 0.0
0.02799999999994315 0.0 0.0
0.0289999999999411 0.0 0.0
0.02999999999993905 0.0 0.0
0.030999999999937 0.0 0.0
0.03199999999993521 0.0 0.0
0.0329999999999335 0.0 0.0
0.0339999999999318 0.0 0.0
0.03499999999993009 0.0 0.0
0.03599999999992853 0.0 0.0
0.036999999999927 0.0 0.0
0.03799999999992547 0.0 0.0
0.03899999999992394 0.0 0.0
0.03999999999992241 0.0 0.0
0.04099999999992088 0.0 0.0
0.04199999999991934 0.0 0.0
0.04299999999991782 0.0 0.0
0.04399999999991629 0.0 0.0
0.04499999999991475 0.0 0.0
0.04599999999991322 0.0 0.0
0.0469999999999117 0.0 0.0
0.04799999999991016 0.0 0.0
0.04899999999990863 0.0 0.0
0.0499999999999071 0.0 0.0
0.05099999999990557 0.0 0.0
0.05199999999990404 0.0 0.0
0.05299999999990251 0.0 0.0
0.05399999999990097 0.0 0.0
0.05499999999989943 0.0 0.0
0.05599999999989791 0.0 0.0
0.05699999999989638 0.0 0.0
0.05799999999989484 0.0 0.0
0.05899999999989317 0.0 0.0
0.05999999999989129 0.0 0.0
0.06099999999988941 0.0 0.0
0.06199999999988753 0.0 0.0
0.06299999999988531 0.0 0.0
0.06399999999988273 0.0 0.0
0.06499999999988015 0.0 0.0
0.06599999999987759 0.0 0.0
0.0669999999998748 0.0 0.0
0.06799999999987189 0.0 0.0
0.06899999999986897 0.0 0.0
0.06999999999986604 0.0 0.0
0.07099999999986313 0.0 0.0
0.0719999999998602 0.0 0.0
0.07299999999985729 0.0 0.0
0.07399999999985438 0.0 0.0
0.07499999999985145 0.0 0.0
0.07599999999984854 0.0 0.0
0.07699999999984562 0.0 0.0
0.0779999999998427 0.0 0.0
0.07899999999983978 0.0 0.0
0.07999999999983685 0.0 0.0
0.08099999999983394 0.0 0.0
0.08199999999983103 0.0 0.0
0.0829999999998281 0.0 0.0
0.08399999999982519 0.0 0.0
0.08499999999982226 0.0 0.0
0.08599999999981935 0.0 0.0
0.08699999999981643 0.0 0.0
0.0879999999998135 0.0 0.0
0.08899999999981059 0.0 0.0
0.08999999999980766 0.0 0.0
0.09099999999980475 0.0 0.0
0.09199999999980184 0.0 0.0
0.09299999999979891 0.0 0.0
0.093999999999796 0.0 0.0
0.09499999999979307 0.0 0.0
0.09599999999979016 0.0 0.0
0.09699999999978724 0.0 0.0
0.09799999999978432 0.0 0.0
0.0989999999997814 0.0 0.0
0.09999999999977847 0.0 0.0
0.1009999999997756 0.0 0.0
0.1019999999997726 0.0 0.0
0.1029999999997697 0.0 0.0
0.1039999999997668 0.0 0.0
0.1049999999997639 0.0 0.0
0.105999999999761 0.0 0.0
0.106999999999758 0.0 0.0
0.1079999999997551 0.0 0.0
0.1089999999997522 0.0 0.0
0.1099999999997493 0.0 0.0
0.1109999999997464 0.0 0.0
0.1119999999997434 0.0 0.0
0.1129999999997405 0.0 0.0
0.1139999999997376 0.0 0.0
0.1149999999997347 0.0 0.0
0.1159999999997318 0.0 0.0
0.1169999999997288 0.0 0.0
0.1179999999997259 0.0 0.0
0.118999999999723 0.0 0.0
0.1199999999997201 0.0 0.0
0.1209999999997172 0.0 0.0
0.1219999999997143 0.0 0.0
0.1229999999997113 0.0 0.0
0.1239999999997084 0.0 0.0
0.1249999999997055 0.0 0.0
0.1259999999997026 0.0 0.0
0.1269999999996997 0.0 0.0
0.1279999999996967 0.0 0.0
0.1289999999996938 0.0 0.0
0.1299999999996909 0.0 0.0
0.130999999999688 0.0 0.0
0.1319999999996851 0.0 0.0
0.1329999999996822 0.0 0.0
0.1339999999996792 0.0 0.0
0.1349999999996764 0.0 0.0
0.1359999999996734 0.0 0.0
0.1369999999996705 0.0 0.0
0.1379999999996676 0.0 0.0
0.1389999999996647 0.0 0.0
0.1399999999996618 0.0 0.0
0.1409999999996588 0.0 0.0
0.1419999999996559 0.0 0.0
0.142999999999653 0.0 0.0
0.1439999999996501 0.0 0.0
0.1449999999996472 0.0 0.0
0.1459999999996442 0.0 0.0
0.1469999999996414 0.0 0.0
0.1479999999996384 0.0 0.0
0.1489999999996355 0.0 0.0
0.1499999999996326 0.0 0.0
0.1509999999996297 0.0 0.0
0.1519999999996268 0.0 0.0
0.1529999999996239 0.0 0.0
0.1539999999996209 0.0 0.0
0.154999999999618 0.0 0.0
0.1559999999996151 0.0 0.0
0.1569999999996122 0.0 0.0
0.1579999999996093 0.0 0.0
0.1589999999996064 0.0 0.0
0.1599999999996035 0.0 0.0
0.1609999999996005 0.0 0.0
0.1619999999995976 0.0 0.0
0.1629999999995947 0.0 0.0
0.1639999999995918 0.0 0.0
0.1649999999995889 0.0 0.0
0.165999999999586 0.0 0.0
0.1669999999995831 0.0 0.0
0.1679999999995801 0.0 0.0
0.1689999999995772 0.0 0.0
0.1699999999995743 0.0 0.0
0.1709999999995714 0.0 0.0
0.1719999999995685 0.0 0.0
0.1729999999995655 0.0 0.0
0.1739999999995626 0.0 0.0
0.1749999999995597 0.0 0.0
0.1759999999995568 0.0 0.0
0.1769999999995539 0.0 0.0
0.177999999999551 0.0 0.0
0.178999999999548 0.0 0.0
0.1799999999995451 0.0 0.0
0.1809999999995422 0.0 0.0
0.1819999999995393 0.0 0.0
0.1829999999995364 0.0 0.0
0.1839999999995335 0.0 0.0
0.1849999999995305 0.0 0.0
0.1859999999995277 0.0 0.0
0.1869999999995247 0.0 0.0
0.1879999999995218 0.0 0.0
0.1889999999995189 0.0 0.0
0.189999999999516 0.0 0.0
0.1909999999995131 0.0 0.0
0.1919999999995101 0.0 0.0
0.1929999999995072 0.0 0.0
0.1939999999995043 0.0 0.0
0.1949999999995014 0.0 0.0
0.1959999999994985 0.0 0.0
0.1969999999994956 0.0 0.0
0.1979999999994927 0.0 0.0
0.1989999999994897 0.0 0.0
0.1999999999994868 0.0 0.0
0.2009999999994839 0.0 0.0
0.201999999999481 0.0 0.0
0.2029999999994781 0.0 0.0
0.2039999999994752 0.0 0.0
0.2049999999994722 0.0 0.0
0.2059999999994693 0.0 0.0
0.2069999999994664 0.0 0.0
0.2079999999994635 0.0 0.0
0.2089999999994606 0.0 0.0
0.2099999999994577 0.0 0.0
0.2109999999994548 0.0 0.0
0.2119999999994518 0.0 0.0
0.2129999999994489 0.0 0.0
0.213999999999446 0.0 0.0
0.2149999999994431 0.0 0.0
0.2159999999994402 0.0 0.0
0.2169999999994373 0.0 0.0
0.2179999999994343 0.0 0.0
0.2189999999994314 0.0 0.0
0.2199999999994285 0.0 0.0
0.2209999999994256 0.0 0.0
0.2219999999994227 0.0 0.0
0.2229999999994198 0.0 0.0
0.2239999999994168 0.0 0.0
0.2249999999994139 0.0 0.0
0.225999999999411 0.0 0.0
0.2269999999994081 0.0 0.0
0.2279999999994052 0.0 0.0
0.2289999999994023 0.0 0.0
0.2299999999993994 0.0 0.0
0.2309999999993964 0.0 0.0
0.2319999999993935 0.0 0.0
0.2329999999993906 0.0 0.0
0.2339999999993877 0.0 0.0
0.2349999999993848 0.0 0.0
0.2359999999993818 0.0 0.0
0.236999999999379 0.0 0.0
0.237999999999376 0.0 0.0
0.2389999999993731 0.0 0.0
0.2399999999993702 0.0 0.0
0.2409999999993673 0.0 0.0
0.2419999999993644 0.0 0.0
0.2429999999993615 0.0 0.0
0.2439999999993585 0.0 0.0
0.2449999999993556 0.0 0.0
0.2459999999993527 0.0 0.0
0.246999999999351 0.0 0.0
0.2479999999993495 0.0 0.0
0.248999999999348 0.0 0.0
0.2499999999993464 0.0 0.0
0.2509999999993477 0.0 0.0
0.2519999999993489 0.0 0.0
0.2529999999993502 0.0 0.0
0.2539999999993516 0.0 0.0
0.2549999999993542 0.0 0.0
0.2559999999993569 0.0 0.0
0.2569999999993595 0.0 0.0
0.2579999999993621 0.0 0.0
0.2589999999993647 0.0 0.0
0.2599999999993673 0.0 0.0
0.26099999999937 0.0 0.0
0.2619999999993726 0.0 0.0
0.2629999999993753 0.0 0.0
0.2639999999993779 0.0 0.0
0.2649999999993806 0.0 0.0
0.2659999999993832 0.0 0.0
0.2669999999993858 0.0 0.0
0.2679999999993884 0.0 0.0
0.2689999999993911 0.0 0.0
0.2699999999993937 0.0 0.0
0.2709999999993963 0.0 0.0
0.271999999999399 0.0 0.0
0.2729999999994017 0.0 0.0
0.2739999999994043 0.0 0.0
0.2749999999994069 0.0 0.0
0.2759999999994096 0.0 0.0
0.2769999999994122 0.0 0.0
0.2779999999994148 0.0 0.0
0.2789999999994174 0.0 0.0
0.2799999999994201 0.0 0.0
0.2809999999994228 0.0 0.0
0.2819999999994254 0.0 0.0
0.282999999999428 0.0 0.0
0.2839999999994306 0.0 0.0
0.2849999999994333 0.0 0.0
0.2859999999994359 0.0 0.0
0.2869999999994385 0.0 0.0
0.2879999999994411 0.0 0.0
0.2889999999994439 0.0 0.0
0.2899999999994465 0.0 0.0
0.2909999999994491 0.0 0.0
0.2919999999994517 0.0 0.0
0.2929999999994544 0.0 0.0
0.293999999999457 0.0 0.0
0.2949999999994596 0.0 0.0
0.2959999999994622 0.0 0.0
0.2969999999994649 0.0 0.0
0.2979999999994676 0.0 0.0
0.2989999999994702 0.0 0.0
0.2999999999994728 0.0 0.0
0.3009999999994754 0.0 0.0
0.3019999999994781 0.0 0.0
0.3029999999994807 0.0 0.0
0.3039999999994834 0.0 0.0
0.304999999999486 0.0 0.0
0.3059999999994886 0.0 0.0
0.3069999999994913 0.0 0.0
0.3079999999994939 0.0 0.0
0.3089999999994965 0.0 0.0
0.3099999999994992 0.0 0.0
0.3109999999995018 0.0 0.0
0.3119999999995045 0.0 0.0
0.3129999999995071 0.0 0.0
0.3139999999995097 0.0 0.0
0.3149999999995123 0.0 0.0
0.315999999999515 0.0 0.0
0.3169999999995176 0.0 0.0
0.3179999999995203 0.0 0.0
0.3189999999995229 0.0 0.0
0.3199999999995256 0.0 0.0
0.3209999999995282 0.0 0.0
0.3219999999995308 0.0 0.0
0.3229999999995334 0.0 0.0
0.323999999999536 0.0 0.0
0.3249999999995387 0.0 0.0
0.3259999999995414 0.0 0.0
0.326999999999544 0.0 0.0
0.3279999999995466 0.0 0.0
0.3289999999995493 0.0 0.0
0.3299999999995519 0.0 0.0
0.3309999999995545 0.0 0.0
0.3319999999995571 0.0 0.0
0.3329999999995598 0.0 0.0
0.3339999999995625 0.0 0.0
0.3349999999995651 0.0 0.0
0.3359999999995677 0.0 0.0
0.3369999999995703 0.0 0.0
0.337999999999573 0.0 0.0
0.3389999999995756 0.0 0.0
0.3399999999995783 0.0 0.0
0.3409999999995809 0.0 0.0
0.3419999999995835 0.0 0.0
0.3429999999995862 0.0 0.0
0.3439999999995888 0.0 0.0
0.3449999999995914 0.0 0.0
0.345999999999594 0.0 0.0
0.3469999999995967 0.0 0.0
0.3479999999995994 0.0 0.0
0.348999999999602 0.0 0.0
0.3499999999996046 0.0 0.0
0.3509999999996072 0.0 0.0
0.3519999999996099 0.0 0.0
0.3529999999996125 0.0 0.0
0.3539999999996151 0.0 0.0
0.3549999999996178 0.0 0.0
0.3559999999996205 0.0 0.0
0.3569999999996231 0.0 0.0
0.3579999999996257 0.0 0.0
0.3589999999996283 0.0 0.0
0.359999999999631 0.0 0.0
0.3609999999996336 0.0 0.0
0.3619999999996362 0.0 0.0
[...]
POINT_DATA 7930
SCALARS Disp float 2
LOOKUP_TABLE default
0.0 0.0001406070390699353
0.0 0.1
0.0 0.1
0.0 0.0
1.375916005862426e-17 0.0
-7.0107598386448175e-06 0.00013880237255004752
-1.3583373225110741e-05 0.0001334589625851811
-1.9901781133969703e-05 0.00012589374597697932
-2.73729707883236e-05 0.0001133903043778817
-3.300427586642394e-05 9.389760193926621e-05
-3.6577333344799266e-05 6.301188280927628e-05
-3.414801695039807e-05 0.0
-2.53633365777443e-05 0.0
-1.936388556650348e-05 0.0
-1.617152961347795e-05 0.0
-1.3412026548587484e-05 0.0
-1.135738977085209e-05 0.0
-9.810362026948244e-06 0.0
-8.504257767563417e-06 0.0
-7.359991897497584e-06 0.0
-6.383122623414588e-06 0.0
-5.505963537024214e-06 0.0
-4.74334438512984e-06 0.0
-4.072706596377872e-06 0.0
-3.4882117012825087e-06 0.0
-2.9478377729594204e-06 0.0
-2.4822704379256145e-06 0.0
-2.0763976792181604e-06 0.0
-1.7217850731060726e-06 0.0
-1.4181212711966474e-06 0.0
-1.1427770039329543e-06 0.0
-9.061125777997938e-07 0.0
-7.010898903559995e-07 0.0
-5.25532224863666e-07 0.0
-3.754360355636335e-07 0.0
-2.472861158099729e-07 0.0
-1.395031908281503e-07 0.0
-4.897280319924734e-08 0.0
2.455250338814895e-08 0.0
8.446458486852978e-08 0.0
1.3379976790672862e-07 0.0
1.726658076505294e-07 0.0
2.026596008563094e-07 0.0
2.2477819638688582e-07 0.0
2.4043602808052567e-07 0.0
2.505654792366446e-07 0.0
2.5612498981209446e-07 0.0
2.5781923843766166e-07 0.0
2.56744484315258e-07 0.0
2.5306821320800885e-07 0.0
2.4731774573921036e-07 0.0
2.3993546790129513e-07 0.0
2.3118502188731652e-07 0.0
2.2165121412731073e-07 0.0
2.1151022644822918e-07 0.0
2.0095520947912107e-07 0.0
1.9020860632795875e-07 0.0
1.7937979419891171e-07 0.0
1.6876660824802178e-07 0.0
1.582651205444268e-07 0.0
1.479951965287819e-07 0.0
1.3804767289468794e-07 0.0
1.2848413708977495e-07 0.0
1.1932647138796664e-07 0.0
1.1060159337744342e-07 0.0
1.023316494288506e-07 0.0
9.451438588715424e-08 0.0
8.715318038421944e-08 0.0
8.024097124484617e-08 0.0
7.377596700183742e-08 0.0
6.774142566676627e-08 0.0
6.211899117433078e-08 0.0
5.6891406649470606e-08 0.0
5.2045930706523243e-08 0.0
4.7565551232427697e-08 0.0
4.3427751314390136e-08 0.0
3.96075759222609e-08 0.0
3.608604359836942e-08 0.0
3.2846869627640486e-08 0.0
2.9873720155327264e-08 0.0
2.71454575535309e-08 0.0
2.4647139920294624e-08 0.0
2.2354282671257226e-08 0.0
2.0264873842780666e-08 0.0
1.8360432477912366e-08 0.0
1.662049317058724e-08 0.0
1.503582764237405e-08 0.0
1.3594570533239215e-08 0.0
1.2278445450843468e-08 0.0
1.1082357386547592e-08 0.0
1.0000352263264489e-08 0.0
9.01837373061284e-09 0.0
8.128282530063994e-09 0.0
7.321807025652467e-09 0.0
6.59172112463405e-09 0.0
5.933326300537949e-09 0.0
5.33643228086661e-09 0.0
4.796965151736287e-09 0.0
4.30957119334049e-09 0.0
3.86855169131928e-09 0.0
3.4721899061270394e-09 0.0
3.11541520453865e-09 0.0
2.7950493456943566e-09 0.0
2.507580600663419e-09 0.0
2.246562766052272e-09 0.0
2.012835341085893e-09 0.0
1.8020693407498112e-09 0.0
1.6126303734561008e-09 0.0
1.44262346910049e-09 0.0
1.2905772001029917e-09 0.0
1.1538813710559143e-09 0.0
1.0315009535102244e-09 0.0
9.212945773368011e-10 0.0
8.228654213223415e-10 0.0
7.345644792104076e-10 0.0
6.556114971679289e-10 0.0
5.849915500471294e-10 0.0
5.217179372528701e-10 0.0
4.6510074670810955e-10 0.0
4.146830937610282e-10 0.0
3.696346543760427e-10 0.0
3.2933547223972634e-10 0.0
2.932676731579661e-10 0.0
2.611040795222404e-10 0.0
2.3283253420473365e-10 0.0
2.0695447333909066e-10 0.0
1.8406443257412588e-10 0.0
1.6369614315619627e-10 0.0
1.4562709426430722e-10 0.0
1.2936113917229456e-10 0.0
1.1495440494224115e-10 0.0
1.0220115969550455e-10 0.0
9.077665888564481e-11 0.0
8.061248892117207e-11 0.0
7.15502270029339e-11 0.0
6.350713147558187e-11 0.0
5.635323372243152e-11 0.0
4.999218786766664e-11 0.0
4.434976798357755e-11 0.0
3.933920696853221e-11 0.0
3.485758454628822e-11 0.0
3.090410218434033e-11 0.0
2.738876105004875e-11 0.0
2.4266121034164993e-11 0.0
2.1492727787470985e-11 0.0
1.9035137158846498e-11 0.0
1.685506095886186e-11 0.0
1.492422762491756e-11 0.0
1.3210055409985348e-11 0.0
1.1689984149654254e-11 0.0
1.0348100376821245e-11 0.0
9.159707346021246e-12 0.0
8.100028549614792e-12 0.0
7.160260002645999e-12 0.0
6.33240427203674e-12 0.0
5.598297420627922e-12 0.0
4.949171293238969e-12 0.0
4.374291168696016e-12 0.0
3.864074210530417e-12 0.0
3.4131855781812645e-12 0.0
3.0118207211154573e-12 0.0
2.6653988259180974e-12 0.0
2.3504427334253412e-12 0.0
2.0747161763943956e-12 0.0
1.831758591249325e-12 0.0
1.6155839099331637e-12 0.0
1.4282582217139654e-12 0.0
1.2583497447467975e-12 0.0
1.109736910196999e-12 0.0
9.791761133075586e-13 0.0
8.636168520679698e-13 0.0
7.616637590493224e-13 0.0
6.714726164323829e-13 0.0
5.918539582632929e-13 0.0
5.216776779947541e-13 0.0
4.596154051355697e-13 0.0
4.05120758966917e-13 0.0
3.5702303628370267e-13 0.0
3.1446015023454805e-13 0.0
2.769026459935776e-13 0.0
2.438828303827186e-13 0.0
2.1479224093398707e-13 0.0
1.890541245418813e-13 0.0
1.6641975346478607e-13 0.0
1.4651256015961927e-13 0.0
1.2890273369398486e-13 0.0
1.1344728910107136e-13 0.0
9.988701162415679e-14 0.0
8.789268546168571e-14 0.0
7.72782599684086e-14 0.0
6.797598233569428e-14 0.0
5.977580019121657e-14 0.0
5.256274135232428e-14 0.0
4.623870147249093e-14 0.0
4.0646690685967813e-14 0.0
3.572024541718478e-14 0.0
3.139509338953629e-14 0.0
2.7589574490263733e-14 0.0
2.4236372404056795e-14 0.0
2.130379713895073e-14 0.0
1.872133984378506e-14 0.0
1.6440417042845132e-14 0.0
1.4446023969779392e-14 0.0
1.2684992021789359e-14 0.0
1.1141707171851594e-14 0.0
9.784021372609827e-15 0.0
8.585202414863134e-15 0.0
7.537066085109854e-15 0.0
6.618842593275943e-15 0.0
5.809660860293652e-15 0.0
5.1005380812730844e-15 0.0
4.477748948408909e-15 0.0
3.929618398321634e-15 0.0
3.4476641343769404e-15 0.0
3.025296967589236e-15 0.0
2.6554366425595924e-15 0.0
2.3299230926229906e-15 0.0
2.0440725335295763e-15 0.0
1.7936846378641295e-15 0.0
1.5727909147944634e-15 0.0
1.3798294816115216e-15 0.0
1.2101461327338551e-15 0.0
1.0615135821944628e-15 0.0
9.31301583476971e-16 0.0
8.168709004907142e-16 0.0
7.167185258659636e-16 0.0
6.288376857811207e-16 0.0
5.516164866097148e-16 0.0
4.83906923293382e-16 0.0
4.244919375527006e-16 0.0
3.726301945023349e-16 0.0
3.2712315512200405e-16 0.0
2.8720194499506997e-16 0.0
2.522238386754591e-16 0.0
2.2139552863502562e-16 0.0
1.944978714191849e-16 0.0
1.7101447961747097e-16 0.0
1.503619696213542e-16 0.0
1.3230400796309862e-16 0.0
1.1653044933872552e-16 0.0
1.0267984088265934e-16 0.0
9.053893615318639e-17 0.0
7.993783345827314e-17 0.0
7.064694383528279e-17 0.0
6.250487069901814e-17 0.0
5.539160112249029e-17 0.0
4.9182402565803594e-17 0.0
4.372428777504145e-17 0.0
3.895537441052956e-17 0.0
3.480643694952685e-17 0.0
3.115947337829729e-17 0.0
2.797395954827511e-17 0.0
2.5190276123119978e-17 0.0
2.275141063787102e-17 0.0
2.062277420995419e-17 0.0
1.8756676533453223e-17 0.0
1.7132572675236483e-17 0.0
1.5715378927501185e-17 0.0
1.4471641412891498e-17 0.0
1.3385419895859667e-17 0.0
1.2435219513407054e-17 0.0
1.1618744591366021e-17 0.0
1.0911689325783602e-17 0.0
1.0300343667530817e-17 0.0
9.763652915798373e-18 0.0
9.293474384383044e-18 0.0
8.883767442272655e-18 0.0
8.525889855918316e-18 0.0
8.216433671070205e-18 0.0
7.941031723809527e-18 0.0
7.70013961836415e-18 0.0
7.493088983243969e-18 0.0
7.316097804500249e-18 0.0
7.169233909269312e-18 0.0
7.0387793430206e-18 0.0
6.923849276812141e-18 0.0
6.825740941326627e-18 0.0
6.743157299690283e-18 0.0
6.667997747709356e-18 0.0
6.6063301197225546e-18 0.0
6.55325598951243e-18 0.0
6.5092683824696595e-18 0.0
6.470514706498132e-18 0.0
6.4389936556473e-18 0.0
6.413616770202869e-18 0.0
6.39433396906707e-18 0.0
6.382301929545728e-18 0.0
6.368180763842518e-18 0.0
6.361437485446912e-18 0.0
6.356965627307392e-18 0.0
6.3567995611378605e-18 0.0
6.3556965782786285e-18 0.0
6.356263473271647e-18 0.0
6.366298068358878e-18 0.0
6.378479848658931e-18 0.0
6.397727550403336e-18 0.0
6.423039791762021e-18 0.0
6.4553406820000355e-18 0.0
6.4926074807340336e-18 0.0
6.537544411789681e-18 0.0
6.582944285825053e-18 0.0
6.630375867767134e-18 0.0
6.676129895822037e-18 0.0
6.732415665668735e-18 0.0
6.793917187979535e-18 0.0
6.855510239808486e-18 0.0
6.9208067791924206e-18 0.0
6.986970719690776e-18 0.0
7.057263259119594e-18 0.0
7.127030442031253e-18 0.0
7.20081422546092e-18 0.0
7.272115318905324e-18 0.0
7.342336767183618e-18 0.0
7.420236019856673e-18 0.0
7.493075799081867e-18 0.0
7.571107828916956e-18 0.0
7.649284456400604e-18 0.0
7.729322831576509e-18 0.0
7.802090237684752e-18 0.0
7.874568761431079e-18 0.0
7.937667772095315e-18 0.0
8.001158630960843e-18 0.0
8.063155993121364e-18 0.0
8.121101848281035e-18 0.0
8.183570916368075e-18 0.0
8.246779496354287e-18 0.0
8.306096495819276e-18 0.0
8.366924233015328e-18 0.0
8.425402782762088e-18 0.0
8.48455429886179e-18 0.0
8.549261822689655e-18 0.0
8.61271956178685e-18 0.0
8.67654265775749e-18 0.0
8.73592142497476e-18 0.0
8.791204701481215e-18 0.0
8.845812195480587e-18 0.0
8.902414896950458e-18 0.0
8.965920948923934e-18 0.0
9.018895831838083e-18 0.0
9.077181138198118e-18 0.0
9.133517906930604e-18 0.0
9.190086726587468e-18 0.0
9.247647032058894e-18 0.0
9.298720763907955e-18 0.0
9.352787815816793e-18 0.0
9.411346225602618e-18 0.0
9.467381406031439e-18 0.0
9.52034596365543e-18 0.0
9.57293298766363e-18 0.0
9.622026715929172e-18 0.0
9.665121003847703e-18 0.0
9.702756877472192e-18 0.0
9.742914669436977e-18 0.0
9.780633479868837e-18 0.0
9.816485733192604e-18 0.0
9.852350220409365e-18 0.0
9.88665552814697e-18 0.0
9.913608535503713e-18 0.0
9.937495986725362e-18 0.0
9.966418463384673e-18 0.0
9.995708095406689e-18 0.0
1.0025981059453674e-17 0.0
1.0056767577538716e-17 0.0
1.0083136138260342e-17 0.0
1.0109010989842815e-17 0.0
1.0135482821558337e-17 0.0
1.0160571465243803e-17 0.0
1.0188638000621371e-17 0.0
1.0217935178815878e-17 0.0
1.0256451357571736e-17 0.0
1.0303447786047955e-17 0.0
1.0347944006376446e-17 0.0
1.0395409951088438e-17 0.0
1.0447086249115647e-17 0.0
1.0498166032956436e-17 0.0
1.055212915668785e-17 0.0
1.0603910421107449e-17 0.0
1.065645301823903e-17 0.0
1.0712369010188243e-17 0.0
1.0764899006566296e-17 0.0
1.0820215982470047e-17 0.0
1.0869029149430439e-17 0.0
1.0915270461801439e-17 0.0
1.0960711359970115e-17 0.0
1.1003614718510533e-17 0.0
1.1039661143867493e-17 0.0
1.107942700175035e-17 0.0
1.1115639087212039e-17 0.0
1.1151093959397322e-17 0.0
1.1183274647164797e-17 0.0
1.1218587745552349e-17 0.0
1.1255538311251851e-17 0.0
1.1287496411181302e-17 0.0
1.1319198506703836e-17 0.0
1.1354769555911427e-17 0.0
1.1386068060820878e-17 0.0
1.1415297818866798e-17 0.0
1.1450721326528242e-17 0.0
1.1486440143662843e-17 0.0
1.1524377746674766e-17 0.0
1.1562545097048902e-17 0.0
1.1595011854196978e-17 0.0
1.1631622821991699e-17 0.0
1.1663408023250014e-17 0.0
1.1688838270357646e-17 0.0
1.171327110195469e-17 0.0
1.1732145217943609e-17 0.0
1.1753987869242565e-17 0.0
1.1781796413517417e-17 0.0
1.1807124362724546e-17 0.0
1.18337998988448e-17 0.0
1.1859457991399684e-17 0.0
1.188486772346008e-17 0.0
1.1906653618798399e-17 0.0
1.1932822302259788e-17 0.0
1.1961579446316943e-17 0.0
1.198264326603488e-17 0.0
1.1998323584897726e-17 0.0
1.2017095206777048e-17 0.0
1.2029767638930242e-17 0.0
1.2049015350322375e-17 0.0
1.2067659716863893e-17 0.0
1.2074289034541137e-17 0.0
1.208679019619319e-17 0.0
1.209011065068296e-17 0.0
1.209703100624165e-17 0.0
1.2093316732057914e-17 0.0
1.2094389614606009e-17 0.0
1.2087291415294707e-17 0.0
1.2078531692183342e-17 0.0
1.2063742062871815e-17 0.0
1.2060481433447015e-17 0.0
1.2057227965816033e-17 0.0
1.2064963216166252e-17 0.0
1.2073667324357947e-17 0.0
1.2086891486802988e-17 0.0
1.2096396051950292e-17 0.0
1.2112022584411713e-17 0.0
1.2127242204768333e-17 0.0
1.2139534797140394e-17 0.0
1.2154122002327156e-17 0.0
1.2166573983813927e-17 0.0
1.2177744944783484e-17 0.0
1.2187145232314911e-17 0.0
1.2196502230778186e-17 0.0
1.2201620358829387e-17 0.0
1.2208419002948518e-17 0.0
1.2212831905253074e-17 0.0
1.2214150283458488e-17 0.0
1.221376105277383e-17 0.0
1.221164035166063e-17 0.0
1.2210182856366432e-17 0.0
1.2210283029078227e-17 0.0
1.2214279795915663e-17 0.0
1.2217945773240074e-17 0.0
1.2216309102279e-17 0.0
1.22181799432874e-17 0.0
1.2221119147882067e-17 0.0
1.2228207454628168e-17 0.0
1.2230358769543401e-17 0.0
1.2228403125924925e-17 0.0
1.2225072765091447e-17 0.0
1.2231848377113025e-17 0.0
1.223630403536149e-17 0.0
1.2243048535603516e-17 0.0
1.2252435343313436e-17 0.0
1.2263590773280386e-17 0.0
1.2278174083238558e-17 0.0
1.2300799207293953e-17 0.0
1.2330157539248432e-17 0.0
1.2362410692287442e-17 0.0
1.2396666964271658e-17 0.0
1.2437707033518069e-17 0.0
1.2477069630809752e-17 0.0
1.251492270771208e-17 0.0
1.2548740554860945e-17 0.0
1.2586154668314755e-17 0.0
1.2623286150334986e-17 0.0
1.2657105221046598e-17 0.0
1.2691808707172859e-17 0.0
1.2728243051686755e-17 0.0
1.2762271438114835e-17 0.0
1.2792865851262116e-17 0.0
1.2824601967367505e-17 0.0
1.285862956029927e-17 0.0
1.2892796769193585e-17 0.0
1.29317502720698e-17 0.0
1.2974649108307644e-17 0.0
1.3017436342282885e-17 0.0
1.3056923773609527e-17 0.0
1.3097096830792868e-17 0.0
1.3141790299410707e-17 0.0
1.3191768558859188e-17 0.0
1.324066651276087e-17 0.0
1.329167776923277e-17 0.0
1.334157367034351e-17 0.0
1.3388881914101059e-17 0.0
1.3435508811669322e-17 0.0
1.348430583579752e-17 0.0
1.3535162167630997e-17 0.0
1.358301201634819e-17 0.0
1.3629549527615726e-17 0.0
1.3674930103726563e-17 0.0
1.372039899263962e-17 0.0
1.3795239244581458e-17 0.0
1.3832996028441997e-17 0.0
1.3872548233009155e-17 0.0
1.390592035291277e-17 0.0
1.3935800426211778e-17 0.0
1.3958906968124752e-17 0.0
1.3987312265803597e-17 0.0
1.402346820967284e-17 0.0
1.405819367939091e-17 0.0
1.4102011113903873e-17 0.0
1.4166723414916945e-17 0.0
1.4248067920496663e-17 0.0
1.433808358515251e-17 0.0
1.4400806288972194e-17 0.0
1.4462748767198548e-17 0.0
1.4525271608320967e-17 0.0
1.459042253546766e-17 0.0
1.465631112561964e-17 0.0
1.4722888325173565e-17 0.0
1.481020023770006e-17 0.0
1.489674406365269e-17 0.0
1.4971626033291956e-17 0.0
1.5105182431389703e-17 0.0
1.5239103852694406e-17 0.0
1.5365527231609403e-17 0.0
1.557861523424542e-17 0.0
1.579828958137844e-17 0.0
1.603549755411977e-17 0.0
1.629264086877843e-17 0.0
1.645923351930258e-17 0.0
1.668031778837849e-17 0.0
1.6913610952597682e-17 0.0
1.7236168394923033e-17 0.0
1.762746437218393e-17 0.0
1.7829125364580337e-17 0.0
1.8511116388110033e-17 0.0
1.9422605751549007e-17 0.0
1.9881240726931186e-17 0.0
2.0398395485151474e-17 0.0
2.1470167065469262e-17 0.0
2.2037673327972382e-17 0.0
2.356379712146687e-17 0.0
2.438457894443621e-17 0.0
2.536144890775677e-17 0.0
2.5357119999964355e-17 0.0
2.788264033635501e-17 0.0
2.962816482302645e-17 0.0
2.9419895575537385e-17 0.0
3.171101239217593e-17 0.0
3.261431832701944e-17 0.0
3.5641186315804133e-17 0.0
3.7903642550217265e-17 0.0
4.0300697754239375e-17 0.0
4.125199352065967e-17 0.0
4.482033276072472e-17 0.0
4.5300089130269944e-17 0.0
4.630532534425883e-17 0.0
4.854910364766019e-17 0.0
4.855583543436043e-17 0.0
4.989914240561323e-17 0.0
4.8989079972305073e-17 0.0
5.1177050433186654e-17 0.0
5.056025018594434e-17 0.0
4.99028243640992e-17 0.0
4.958149598525777e-17 0.0
4.811178936499069e-17 0.0
4.407618482373043e-17 0.0
3.843126028044419e-17 0.0
3.251948409571563e-17 0.0
2.7505917742574828e-17 0.0
2.6612482600778274e-17 0.0
2.6301041855866793e-17 0.0
2.497327319416304e-17 0.0
2.2724520732982635e-17 0.0
1.854422108913403e-17 0.0
1.4365700836446043e-17 0.0
9.509186042226573e-18 0.0
6.491468033126957e-18 0.0
2.6529284829290934e-18 0.0
0.0 0.009234165287256117
0.0 0.022109785930449582
0.0 0.04006285207154382
0.0 0.06509563926325762
-2.5399695363670757e-17 0.1
-2.4124173230702787e-17 0.1
-3.265979230930898e-17 0.1
-3.945290316211028e-17 0.1
0.0 0.09234095951662377
0.0 0.08526779443703679
0.0 0.07873568783499943
0.0 0.07270325358170407
0.0 0.06713226878993213
0.0 0.0619874333109095
0.0 0.05723615233794543
0.0 0.052848316929512286
0.0 0.048796128449944354
0.0 0.04505391065784695
0.0 0.04159795282712723
0.0 0.03840635724257021
0.0 0.03545890171821876
0.0 0.032736910873323914
0.0 0.03022313773602699
0.0 0.027901654838203067
0.0 0.025757753001960062
0.0 0.02377784835211389
0.0 0.02194939580780279
0.0 0.020260810255893696
0.0 0.018701392223652417
0.0 0.017261261595034594
0.0 0.01593129333668023
0.0 0.014703060372940313
0.0 0.013568780782904495
0.0 0.012521267482861352
0.0 0.01155388341352362
0.0 0.01066049914384292
0.0 0.009835453922831135
0.0 0.009073520329637404
0.0 0.008369870608788573
0.0 0.007720046303381148
0.0 0.007119930012359797
0.0 0.006565719473503299
0.0 0.006053903138567371
0.0 0.005581237991563804
0.0 0.005144729226039183
0.0 0.004741611057488193
0.0 0.004369329279130303
0.0 0.00402552504434288
0.0 0.0037080200117242113
0.0 0.0034148024235082573
0.0 0.003144014422039679
0.0 0.0028939402701323733
0.0 0.0026629954677668097
0.0 0.0024497166854122697
0.0 0.002252752621429115
0.0 0.0020708552513875253
0.0 0.0019028720459323468
0.0 0.0017477386814354864
0.0 0.00160447216244392
0.0 0.0014721648116983346
0.0 0.0013499783276731993
0.0 0.0012371386916256626
0.0 0.0011329316061315688
0.0 0.0010366986037517022
0.0 0.0009478334318361215
0.0 0.0008657802769164958
0.0 0.0007900336711719362
0.0 0.0007201363818586698
0.0 0.0006556798067487531
0.0 0.0005963062277733825
0.0 0.0005416840023100545
0.0 0.0004915617797983517
0.0 0.0004456555500005475
0.0 0.0004037727507479077
0.0 0.0003656772573249834
0.0 0.0003311911672505437
0.0 0.00030014435229319946
0.0 0.00027237470410402165
0.0 0.00024766740422201033
0.0 0.0002258852335806448
0.0 0.0002069324796555288
0.0 0.00019063675104651146
0.0 0.00017703191728349368
0.0 0.000165999464240742
0.0 0.0001573536532391299
0.0 0.00015112776429000913
0.0 0.0001471496529879836
0.0 0.00014483573864698074
0.0 0.000143706854086976
0.0 0.0001430493925042797
0.0 0.00014239878202720343
1.276431257922077e-17 0.004927245132661858
4.678918251910175e-18 0.0027738745973897357
6.026062685606242e-16 0.0015359333715505364
1.5323035649805547e-10 0.0009049731419129978
7.444337629120761e-18 0.001404204105307782
1.5120907396850153e-17 0.0022597849426047047
9.868703733081063e-08 0.0005052453861345905
1.0379197392801855e-17 0.0012867734734088362
1.0763639844543628e-13 0.0007827815987684401
1.2250575856707772e-17 0.0007701206757723383
7.94166563861772e-18 0.0007097590365106989
1.0542747535359592e-17 0.0006767768962500073
2.713971068527838e-17 0.014973736461409962
1.1374266876419327e-17 0.0006657294860763369
1.7996248465935678e-09 0.0004443141263250794
1.4726382077291733e-11 0.00043919062623058025
1.5112059375213725e-17 0.0011704180815624357
1.7933022325565901e-06 0.0002997493086780434
1.2292034081662847e-13 0.0003917646275185553
5.63259565347695e-16 0.0004232446153799708
9.325400876873255e-18 0.0004004930540330194
7.384739342363557e-18 0.0003772773701016165
8.837638275809923e-18 0.00037799227366882524
1.322236837913992e-17 0.0006414990043901032
1.0300219287922284e-17 0.0003524701497888745
1.1143959860844632e-17 0.00039119165164138136
-2.0457599439707083e-19 0.0484739711543326
2.1703266727554153e-07 0.00025343204243937644
1.93565823493127e-08 0.00024233687733645067
1.2286114388816546e-17 0.00033400753026386595
1.2913742624867322e-17 0.00039557321739699
3.637903317251651e-17 0.007989497114757143
2.8249465184952e-17 0.0037118346624276355
1.8168659218865611e-09 0.00022194705482293892
1.2826928899387665e-10 0.00023130455439564963
9.473300750705199e-12 0.0002220359493168651
7.950789127755932e-13 0.00020086702174970767
6.394029401648507e-14 0.00019930870160160232
3.3999481554873412e-15 0.00022296027562364543
1.9936690383142136e-16 0.00021839892709072097
2.0123772769307286e-17 0.0002004305654089192
7.114616791821809e-18 0.0002208509368239466
6.633141341096493e-06 0.00017139082128546368
6.542242535541887e-18 0.00018666584180315147
7.608391653186695e-18 0.000212490407498492
8.719753403145791e-18 0.00019683474572091325
9.632327917810805e-18 0.0002105561768270987
1.2758114609585839e-17 0.0002351768563260182