# vtk DataFile Version 3.0
Some data
ASCII
DATASET UNSTRUCTURED_GRID
POINTS 7930 float
0.0 0.0 0.0
0.0 10.0 0.0
10.0 10.0 0.0
10.0 0.0 0.0
0.5 0.0 0.0
0.0009999999999981016 0.0 0.0
0.001999999999996203 0.0 0.0
0.002999999999994305 0.0 0.0
0.003999999999992409 0.0 0.0
0.004999999999990531 0.0 0.0
0.005999999999988653 0.0 0.0
0.006999999999986775 0.0 0.0
0.007999999999984898 0.0 0.0
0.008999999999983018 0.0 0.0
0.009999999999981142 0.0 0.0
0.01099999999997926 0.0 0.0
0.01199999999997736 0.0 0.0
0.0129999999999754 0.0 0.0
0.01399999999997343 0.0 0.0
0.01499999999997147 0.0 0.0
0.01599999999996944 0.0 0.0
0.0169999999999673 0.0 0.0
0.01799999999996516 0.0 0.0
0.01899999999996302 0.0 0.0
0.01999999999996084 0.0 0.0
0.02099999999995862 0.0 0.0
0.02199999999995639 0.0 0.0
0.02299999999995417 0.0 0.0
0.02399999999995195 0.0 0.0
0.02499999999994972 0.0 0.0
0.0259999999999475 0.0 0.0
0.02699999999994527 0.0 0.0
0.02799999999994315 0.0 0.0
0.0289999999999411 0.0 0.0
0.02999999999993905 0.0 0.0
0.030999999999937 0.0 0.0
0.03199999999993521 0.0 0.0
0.0329999999999335 0.0 0.0
0.0339999999999318 0.0 0.0
0.03499999999993009 0.0 0.0
0.03599999999992853 0.0 0.0
0.036999999999927 0.0 0.0
0.03799999999992547 0.0 0.0
0.03899999999992394 0.0 0.0
0.03999999999992241 0.0 0.0
0.04099999999992088 0.0 0.0
0.04199999999991934 0.0 0.0
0.04299999999991782 0.0 0.0
0.04399999999991629 0.0 0.0
0.04499999999991475 0.0 0.0
0.04599999999991322 0.0 0.0
0.0469999999999117 0.0 0.0
0.04799999999991016 0.0 0.0
0.04899999999990863 0.0 0.0
0.0499999999999071 0.0 0.0
0.05099999999990557 0.0 0.0
0.05199999999990404 0.0 0.0
0.05299999999990251 0.0 0.0
0.05399999999990097 0.0 0.0
0.05499999999989943 0.0 0.0
0.05599999999989791 0.0 0.0
0.05699999999989638 0.0 0.0
0.05799999999989484 0.0 0.0
0.05899999999989317 0.0 0.0
0.05999999999989129 0.0 0.0
0.06099999999988941 0.0 0.0
0.06199999999988753 0.0 0.0
0.06299999999988531 0.0 0.0
0.06399999999988273 0.0 0.0
0.06499999999988015 0.0 0.0
0.06599999999987759 0.0 0.0
0.0669999999998748 0.0 0.0
0.06799999999987189 0.0 0.0
0.06899999999986897 0.0 0.0
0.06999999999986604 0.0 0.0
0.07099999999986313 0.0 0.0
0.0719999999998602 0.0 0.0
0.07299999999985729 0.0 0.0
0.07399999999985438 0.0 0.0
0.07499999999985145 0.0 0.0
0.07599999999984854 0.0 0.0
0.07699999999984562 0.0 0.0
0.0779999999998427 0.0 0.0
0.07899999999983978 0.0 0.0
0.07999999999983685 0.0 0.0
0.08099999999983394 0.0 0.0
0.08199999999983103 0.0 0.0
0.0829999999998281 0.0 0.0
0.08399999999982519 0.0 0.0
0.08499999999982226 0.0 0.0
0.08599999999981935 0.0 0.0
0.08699999999981643 0.0 0.0
0.0879999999998135 0.0 0.0
0.08899999999981059 0.0 0.0
0.08999999999980766 0.0 0.0
0.09099999999980475 0.0 0.0
0.09199999999980184 0.0 0.0
0.09299999999979891 0.0 0.0
0.093999999999796 0.0 0.0
0.09499999999979307 0.0 0.0
0.09599999999979016 0.0 0.0
0.09699999999978724 0.0 0.0
0.09799999999978432 0.0 0.0
0.0989999999997814 0.0 0.0
0.09999999999977847 0.0 0.0
0.1009999999997756 0.0 0.0
0.1019999999997726 0.0 0.0
0.1029999999997697 0.0 0.0
0.1039999999997668 0.0 0.0
0.1049999999997639 0.0 0.0
0.105999999999761 0.0 0.0
0.106999999999758 0.0 0.0
0.1079999999997551 0.0 0.0
0.1089999999997522 0.0 0.0
0.1099999999997493 0.0 0.0
0.1109999999997464 0.0 0.0
0.1119999999997434 0.0 0.0
0.1129999999997405 0.0 0.0
0.1139999999997376 0.0 0.0
0.1149999999997347 0.0 0.0
0.1159999999997318 0.0 0.0
0.1169999999997288 0.0 0.0
0.1179999999997259 0.0 0.0
0.118999999999723 0.0 0.0
0.1199999999997201 0.0 0.0
0.1209999999997172 0.0 0.0
0.1219999999997143 0.0 0.0
0.1229999999997113 0.0 0.0
0.1239999999997084 0.0 0.0
0.1249999999997055 0.0 0.0
0.1259999999997026 0.0 0.0
0.1269999999996997 0.0 0.0
0.1279999999996967 0.0 0.0
0.1289999999996938 0.0 0.0
0.1299999999996909 0.0 0.0
0.130999999999688 0.0 0.0
0.1319999999996851 0.0 0.0
0.1329999999996822 0.0 0.0
0.1339999999996792 0.0 0.0
0.1349999999996764 0.0 0.0
0.1359999999996734 0.0 0.0
0.1369999999996705 0.0 0.0
0.1379999999996676 0.0 0.0
0.1389999999996647 0.0 0.0
0.1399999999996618 0.0 0.0
0.1409999999996588 0.0 0.0
0.1419999999996559 0.0 0.0
0.142999999999653 0.0 0.0
0.1439999999996501 0.0 0.0
0.1449999999996472 0.0 0.0
0.1459999999996442 0.0 0.0
0.1469999999996414 0.0 0.0
0.1479999999996384 0.0 0.0
0.1489999999996355 0.0 0.0
0.1499999999996326 0.0 0.0
0.1509999999996297 0.0 0.0
0.1519999999996268 0.0 0.0
0.1529999999996239 0.0 0.0
0.1539999999996209 0.0 0.0
0.154999999999618 0.0 0.0
0.1559999999996151 0.0 0.0
0.1569999999996122 0.0 0.0
0.1579999999996093 0.0 0.0
0.1589999999996064 0.0 0.0
0.1599999999996035 0.0 0.0
0.1609999999996005 0.0 0.0
0.1619999999995976 0.0 0.0
0.1629999999995947 0.0 0.0
0.1639999999995918 0.0 0.0
0.1649999999995889 0.0 0.0
0.165999999999586 0.0 0.0
0.1669999999995831 0.0 0.0
0.1679999999995801 0.0 0.0
0.1689999999995772 0.0 0.0
0.1699999999995743 0.0 0.0
0.1709999999995714 0.0 0.0
0.1719999999995685 0.0 0.0
0.1729999999995655 0.0 0.0
0.1739999999995626 0.0 0.0
0.1749999999995597 0.0 0.0
0.1759999999995568 0.0 0.0
0.1769999999995539 0.0 0.0
0.177999999999551 0.0 0.0
0.178999999999548 0.0 0.0
0.1799999999995451 0.0 0.0
0.1809999999995422 0.0 0.0
0.1819999999995393 0.0 0.0
0.1829999999995364 0.0 0.0
0.1839999999995335 0.0 0.0
0.1849999999995305 0.0 0.0
0.1859999999995277 0.0 0.0
0.1869999999995247 0.0 0.0
0.1879999999995218 0.0 0.0
0.1889999999995189 0.0 0.0
0.189999999999516 0.0 0.0
0.1909999999995131 0.0 0.0
0.1919999999995101 0.0 0.0
0.1929999999995072 0.0 0.0
0.1939999999995043 0.0 0.0
0.1949999999995014 0.0 0.0
0.1959999999994985 0.0 0.0
0.1969999999994956 0.0 0.0
0.1979999999994927 0.0 0.0
0.1989999999994897 0.0 0.0
0.1999999999994868 0.0 0.0
0.2009999999994839 0.0 0.0
0.201999999999481 0.0 0.0
0.2029999999994781 0.0 0.0
0.2039999999994752 0.0 0.0
0.2049999999994722 0.0 0.0
0.2059999999994693 0.0 0.0
0.2069999999994664 0.0 0.0
0.2079999999994635 0.0 0.0
0.2089999999994606 0.0 0.0
0.2099999999994577 0.0 0.0
0.2109999999994548 0.0 0.0
0.2119999999994518 0.0 0.0
0.2129999999994489 0.0 0.0
0.213999999999446 0.0 0.0
0.2149999999994431 0.0 0.0
0.2159999999994402 0.0 0.0
0.2169999999994373 0.0 0.0
0.2179999999994343 0.0 0.0
0.2189999999994314 0.0 0.0
0.2199999999994285 0.0 0.0
0.2209999999994256 0.0 0.0
0.2219999999994227 0.0 0.0
0.2229999999994198 0.0 0.0
0.2239999999994168 0.0 0.0
0.2249999999994139 0.0 0.0
0.225999999999411 0.0 0.0
0.2269999999994081 0.0 0.0
0.2279999999994052 0.0 0.0
0.2289999999994023 0.0 0.0
0.2299999999993994 0.0 0.0
0.2309999999993964 0.0 0.0
0.2319999999993935 0.0 0.0
0.2329999999993906 0.0 0.0
0.2339999999993877 0.0 0.0
0.2349999999993848 0.0 0.0
0.2359999999993818 0.0 0.0
0.236999999999379 0.0 0.0
0.237999999999376 0.0 0.0
0.2389999999993731 0.0 0.0
0.2399999999993702 0.0 0.0
0.2409999999993673 0.0 0.0
0.2419999999993644 0.0 0.0
0.2429999999993615 0.0 0.0
0.2439999999993585 0.0 0.0
0.2449999999993556 0.0 0.0
0.2459999999993527 0.0 0.0
0.246999999999351 0.0 0.0
0.2479999999993495 0.0 0.0
0.248999999999348 0.0 0.0
0.2499999999993464 0.0 0.0
0.2509999999993477 0.0 0.0
0.2519999999993489 0.0 0.0
0.2529999999993502 0.0 0.0
0.2539999999993516 0.0 0.0
0.2549999999993542 0.0 0.0
0.2559999999993569 0.0 0.0
0.2569999999993595 0.0 0.0
0.2579999999993621 0.0 0.0
0.2589999999993647 0.0 0.0
0.2599999999993673 0.0 0.0
0.26099999999937 0.0 0.0
0.2619999999993726 0.0 0.0
0.2629999999993753 0.0 0.0
0.2639999999993779 0.0 0.0
0.2649999999993806 0.0 0.0
0.2659999999993832 0.0 0.0
0.2669999999993858 0.0 0.0
0.2679999999993884 0.0 0.0
0.2689999999993911 0.0 0.0
0.2699999999993937 0.0 0.0
0.2709999999993963 0.0 0.0
0.271999999999399 0.0 0.0
0.2729999999994017 0.0 0.0
0.2739999999994043 0.0 0.0
0.2749999999994069 0.0 0.0
0.2759999999994096 0.0 0.0
0.2769999999994122 0.0 0.0
0.2779999999994148 0.0 0.0
0.2789999999994174 0.0 0.0
0.2799999999994201 0.0 0.0
0.2809999999994228 0.0 0.0
0.2819999999994254 0.0 0.0
0.282999999999428 0.0 0.0
0.2839999999994306 0.0 0.0
0.2849999999994333 0.0 0.0
0.2859999999994359 0.0 0.0
0.2869999999994385 0.0 0.0
0.2879999999994411 0.0 0.0
0.2889999999994439 0.0 0.0
0.2899999999994465 0.0 0.0
0.2909999999994491 0.0 0.0
0.2919999999994517 0.0 0.0
0.2929999999994544 0.0 0.0
0.293999999999457 0.0 0.0
0.2949999999994596 0.0 0.0
0.2959999999994622 0.0 0.0
0.2969999999994649 0.0 0.0
0.2979999999994676 0.0 0.0
0.2989999999994702 0.0 0.0
0.2999999999994728 0.0 0.0
0.3009999999994754 0.0 0.0
0.3019999999994781 0.0 0.0
0.3029999999994807 0.0 0.0
0.3039999999994834 0.0 0.0
0.304999999999486 0.0 0.0
0.3059999999994886 0.0 0.0
0.3069999999994913 0.0 0.0
0.3079999999994939 0.0 0.0
0.3089999999994965 0.0 0.0
0.3099999999994992 0.0 0.0
0.3109999999995018 0.0 0.0
0.3119999999995045 0.0 0.0
0.3129999999995071 0.0 0.0
0.3139999999995097 0.0 0.0
0.3149999999995123 0.0 0.0
0.315999999999515 0.0 0.0
0.3169999999995176 0.0 0.0
0.3179999999995203 0.0 0.0
0.3189999999995229 0.0 0.0
0.3199999999995256 0.0 0.0
0.3209999999995282 0.0 0.0
0.3219999999995308 0.0 0.0
0.3229999999995334 0.0 0.0
0.323999999999536 0.0 0.0
0.3249999999995387 0.0 0.0
0.3259999999995414 0.0 0.0
0.326999999999544 0.0 0.0
0.3279999999995466 0.0 0.0
0.3289999999995493 0.0 0.0
0.3299999999995519 0.0 0.0
0.3309999999995545 0.0 0.0
0.3319999999995571 0.0 0.0
0.3329999999995598 0.0 0.0
0.3339999999995625 0.0 0.0
0.3349999999995651 0.0 0.0
0.3359999999995677 0.0 0.0
0.3369999999995703 0.0 0.0
0.337999999999573 0.0 0.0
0.3389999999995756 0.0 0.0
0.3399999999995783 0.0 0.0
0.3409999999995809 0.0 0.0
0.3419999999995835 0.0 0.0
0.3429999999995862 0.0 0.0
0.3439999999995888 0.0 0.0
0.3449999999995914 0.0 0.0
0.345999999999594 0.0 0.0
0.3469999999995967 0.0 0.0
0.3479999999995994 0.0 0.0
0.348999999999602 0.0 0.0
0.3499999999996046 0.0 0.0
0.3509999999996072 0.0 0.0
0.3519999999996099 0.0 0.0
0.3529999999996125 0.0 0.0
0.3539999999996151 0.0 0.0
0.3549999999996178 0.0 0.0
0.3559999999996205 0.0 0.0
0.3569999999996231 0.0 0.0
0.3579999999996257 0.0 0.0
0.3589999999996283 0.0 0.0
0.359999999999631 0.0 0.0
0.3609999999996336 0.0 0.0
0.3619999999996362 0.0 0.0
[...]
POINT_DATA 7930
SCALARS Disp float 2
LOOKUP_TABLE default
0.0 0.0007709724360140895
0.0 0.1
0.0 0.1
0.0 0.0
1.2454965088674217e-12 0.0
-6.9210968877918826e-06 0.00077076051574879
-1.3786628080126324e-05 0.0007697843457131547
-2.045512671623212e-05 0.0007678113190673555
-2.7040320566363065e-05 0.0007657942253424231
-3.387514661554375e-05 0.000764251320767852
-4.118129754663925e-05 0.0007614608990859408
-4.80744081775064e-05 0.000756073702296697
-5.431449840964965e-05 0.0007509882148426766
-6.0959518653904205e-05 0.0007473418643878928
-6.817560331945467e-05 0.0007430625437999153
-7.533145076845605e-05 0.0007351536848076031
-8.163913946721329e-05 0.0007272160223063987
-8.837932122018149e-05 0.000721199693674569
-9.573508640795659e-05 0.0007139707792968431
-0.00010285340967499751 0.0007031467318880523
-0.0001089496991840264 0.000691966170331928
-0.00011533261930166998 0.0006832393964803222
-0.00012296707858015348 0.0006733845907986492
-0.0001304644127914036 0.000659303605345867
-0.0001365217861349632 0.0006440793612779337
-0.00014282768429342755 0.0006321045471660279
-0.00015055965941638508 0.0006188598583311341
-0.0001580939761692103 0.0006003587344590253
-0.00016419499825693091 0.0005802543916261061
-0.00017029390101279832 0.0005631687233848987
-0.000177911370873853 0.0005450727177768353
-0.00018502622968496975 0.0005210532099121781
-0.00019116701255785843 0.0004947846037657613
-0.0001970192759237783 0.00047082344465079377
-0.00020472320712512394 0.0004449030962387424
-0.00021182891585198911 0.0004118632661545347
-0.00021853867444426037 0.0003737091427768135
-0.00022473431530597944 0.0003350565724145217
-0.00023074242859047863 0.00029066973824525553
-0.0002363511621216531 0.00023076624885888254
-0.00023709976062968055 0.00014754088901332543
-0.0002176895266098766 0.0
-0.00019030913375395021 0.0
-0.00017333967108769627 0.0
-0.00015982455435973076 0.0
-0.00014949776672302495 0.0
-0.00014117646392770354 0.0
-0.00013372582061495282 0.0
-0.00012706385421097166 0.0
-0.00012124449396235054 0.0
-0.00011597247950519131 0.0
-0.00011124121241246196 0.0
-0.00010688566131842474 0.0
-0.00010284814589358294 0.0
-9.908242371206093e-05 0.0
-9.558269166073251e-05 0.0
-9.233487223692372e-05 0.0
-8.929678555807157e-05 0.0
-8.633360837825479e-05 0.0
-8.36052098863288e-05 0.0
-8.103857529951746e-05 0.0
-7.86119987934206e-05 0.0
-7.629844349197393e-05 0.0
-7.410512825550257e-05 0.0
-7.201171702196779e-05 0.0
-6.999881179303223e-05 0.0
-6.807401905770683e-05 0.0
-6.622707377804681e-05 0.0
-6.444598027383e-05 0.0
-6.27348281525343e-05 0.0
-6.108979085483604e-05 0.0
-5.9499140648628426e-05 0.0
-5.796206960633367e-05 0.0
-5.648112547493977e-05 0.0
-5.5053102608168865e-05 0.0
-5.366826722756179e-05 0.0
-5.23291920621783e-05 0.0
-5.103290553106575e-05 0.0
-4.9772454484918474e-05 0.0
-4.855251816936793e-05 0.0
-4.7371032469952384e-05 0.0
-4.622454988937195e-05 0.0
-4.5111676749483854e-05 0.0
-4.4026651954983125e-05 0.0
-4.297239030863078e-05 0.0
-4.1946611707138916e-05 0.0
-4.094564413296563e-05 0.0
-3.996903644949058e-05 0.0
-3.9018811591321923e-05 0.0
-3.808816004255105e-05 0.0
-3.7177839466925816e-05 0.0
-3.629005093459427e-05 0.0
-3.542295503288658e-05 0.0
-3.457696606065073e-05 0.0
-3.3749053417134334e-05 0.0
-3.2940643162626e-05 0.0
-3.215099853929024e-05 0.0
-3.13791421984702e-05 0.0
-3.062553791539289e-05 0.0
-2.9890984574655302e-05 0.0
-2.917414912239048e-05 0.0
-2.8472973489869212e-05 0.0
-2.7788974736364335e-05 0.0
-2.711999635750545e-05 0.0
-2.6467447520954555e-05 0.0
-2.5829955048244688e-05 0.0
-2.5208003598834673e-05 0.0
-2.4600509019452495e-05 0.0
-2.400689673301127e-05 0.0
-2.3426377021328724e-05 0.0
-2.2855652446604895e-05 0.0
-2.2298151976843578e-05 0.0
-2.175441071920129e-05 0.0
-2.1215248334226873e-05 0.0
-2.0688220975460206e-05 0.0
-2.0170771243089302e-05 0.0
-1.9660688728443497e-05 0.0
-1.9159128591111105e-05 0.0
-1.8665496697204127e-05 0.0
-1.817846171097832e-05 0.0
-1.76989638133759e-05 0.0
-1.7227085056030805e-05 0.0
-1.676242538089715e-05 0.0
-1.63065010730169e-05 0.0
-1.58533709054835e-05 0.0
-1.540930813549656e-05 0.0
-1.4971353673550398e-05 0.0
-1.4541525726016172e-05 0.0
-1.4117237547199878e-05 0.0
-1.3700578158876988e-05 0.0
-1.3291204828732689e-05 0.0
-1.2889399649324346e-05 0.0
-1.2494641990873285e-05 0.0
-1.210754077606543e-05 0.0
-1.1727848358289229e-05 0.0
-1.13558059458051e-05 0.0
-1.0991200311830904e-05 0.0
-1.063471177220487e-05 0.0
-1.028649082315985e-05 0.0
-9.94365994163299e-06 0.0
-9.60876801655956e-06 0.0
-9.280838457837149e-06 0.0
-8.959780841772133e-06 0.0
-8.645104957627837e-06 0.0
-8.33677606291333e-06 0.0
-8.034793061532596e-06 0.0
-7.738748796937297e-06 0.0
-7.448382480543162e-06 0.0
-7.1629927768309706e-06 0.0
-6.882797512118286e-06 0.0
-6.607630071907934e-06 0.0
-6.336911875085374e-06 0.0
-6.070442823078036e-06 0.0
-5.8079415665384225e-06 0.0
-5.549194388360894e-06 0.0
-5.294027146333939e-06 0.0
-5.042339813231174e-06 0.0
-4.7937168140199304e-06 0.0
-4.5480139800083355e-06 0.0
-4.305529453064477e-06 0.0
-4.066223721129003e-06 0.0
-3.829099135112349e-06 0.0
-3.595287871054028e-06 0.0
-3.364105010747397e-06 0.0
-3.1357908942623256e-06 0.0
-2.9105786159862358e-06 0.0
-2.6874833116230353e-06 0.0
-2.467632403951129e-06 0.0
-2.2509764598329912e-06 0.0
-2.037564420247775e-06 0.0
-1.8273986426362027e-06 0.0
-1.6206602344670552e-06 0.0
-1.4172579562697551e-06 0.0
-1.2174491879393767e-06 0.0
-1.0215086344591402e-06 0.0
-8.293375146734173e-07 0.0
-6.413599559378175e-07 0.0
-4.5766209088447847e-07 0.0
-2.78237875557404e-07 0.0
-1.0329164741889766e-07 0.0
6.693049580475223e-08 0.0
2.3234058156178737e-07 0.0
3.931579773870821e-07 0.0
5.491498601570113e-07 0.0
7.000226161885396e-07 0.0
8.460919630573962e-07 0.0
9.870558182475484e-07 0.0
1.122752843592502e-06 0.0
1.2536791357859254e-06 0.0
1.3797781462987746e-06 0.0
1.5006825313727332e-06 0.0
1.61670219214819e-06 0.0
1.7276598046161422e-06 0.0
1.8335518600222297e-06 0.0
1.9349327250565538e-06 0.0
2.0315910207327095e-06 0.0
2.1235743017219056e-06 0.0
2.211091500163098e-06 0.0
2.2942461668823614e-06 0.0
2.3727637221973755e-06 0.0
2.4471879030423554e-06 0.0
2.517787605085898e-06 0.0
2.584219399525201e-06 0.0
2.6470820190976664e-06 0.0
2.7061553054979757e-06 0.0
2.7618024737048203e-06 0.0
2.814276095702862e-06 0.0
2.863210789691949e-06 0.0
2.9089137415328777e-06 0.0
2.9516729956401875e-06 0.0
2.9917253051971193e-06 0.0
3.028967782960166e-06 0.0
3.0636826529800783e-06 0.0
3.09590730924626e-06 0.0
3.1256570776207477e-06 0.0
3.1530060688132636e-06 0.0
3.1782776306649883e-06 0.0
3.2014403931640066e-06 0.0
3.222419529377637e-06 0.0
3.241555476947569e-06 0.0
3.258830719899299e-06 0.0
3.2743054116281088e-06 0.0
3.287953444262287e-06 0.0
3.299829399254771e-06 0.0
3.3101020478379275e-06 0.0
3.3186612741637044e-06 0.0
3.325644304299539e-06 0.0
3.3311179722043744e-06 0.0
3.335050472578125e-06 0.0
3.3374585191323974e-06 0.0
3.338271862981406e-06 0.0
3.3376255768421134e-06 0.0
3.3355079631728107e-06 0.0
3.331930805623198e-06 0.0
3.3270197415754526e-06 0.0
3.320566683522289e-06 0.0
3.312629965978536e-06 0.0
3.3033282729876187e-06 0.0
3.2925429442307675e-06 0.0
3.280297924082248e-06 0.0
3.2666896824419103e-06 0.0
3.2516853849706727e-06 0.0
3.2352136496648165e-06 0.0
3.217352703125098e-06 0.0
3.198145035756782e-06 0.0
3.1775260604517245e-06 0.0
3.1555291648151947e-06 0.0
3.1322864416048826e-06 0.0
3.107685852844993e-06 0.0
3.0817401124871302e-06 0.0
3.054567619207367e-06 0.0
3.026076273790801e-06 0.0
2.9963810811982037e-06 0.0
2.9654812343520025e-06 0.0
2.933391076689637e-06 0.0
2.900204524529414e-06 0.0
2.865917121754686e-06 0.0
2.830529182174511e-06 0.0
2.7941835214448097e-06 0.0
2.7568748553286756e-06 0.0
2.718647934153523e-06 0.0
2.67952117144151e-06 0.0
2.6395578025615842e-06 0.0
2.5988120053549143e-06 0.0
2.557347095475139e-06 0.0
2.51520680475436e-06 0.0
2.472450400628859e-06 0.0
2.4291162582371e-06 0.0
2.385276193880097e-06 0.0
2.3409917620469422e-06 0.0
2.2963034836383083e-06 0.0
2.251268223703476e-06 0.0
2.2059478247647142e-06 0.0
2.160373017322566e-06 0.0
2.1146587249499865e-06 0.0
2.0687968459549503e-06 0.0
2.02285919412429e-06 0.0
1.9768994359075063e-06 0.0
1.9309678072883275e-06 0.0
1.88511433597393e-06 0.0
1.839390908268814e-06 0.0
1.7938428342611954e-06 0.0
1.7485116766034058e-06 0.0
1.703446403544754e-06 0.0
1.6586758491561618e-06 0.0
1.6142632993983673e-06 0.0
1.5702540838446807e-06 0.0
1.5266529216393124e-06 0.0
1.4835143754370506e-06 0.0
1.4408601565650486e-06 0.0
1.3987296272655343e-06 0.0
1.3571661434595296e-06 0.0
1.316177061756816e-06 0.0
1.2758015635768697e-06 0.0
1.2360589824423155e-06 0.0
1.1969584699153563e-06 0.0
1.1585088005140613e-06 0.0
1.1207935790550184e-06 0.0
1.0837777005430319e-06 0.0
1.0474784922581587e-06 0.0
1.0119130545953406e-06 0.0
9.770968916972006e-07 0.0
9.430404613125031e-07 0.0
9.097448292519973e-07 0.0
8.772263734310447e-07 0.0
8.454716618330499e-07 0.0
8.145067177683582e-07 0.0
7.843187944810608e-07 0.0
7.549128503101879e-07 0.0
7.262910608718592e-07 0.0
6.984434659150589e-07 0.0
6.713644127892655e-07 0.0
6.450486476996051e-07 0.0
6.19481284377687e-07 0.0
5.946822509071739e-07 0.0
5.70643061330231e-07 0.0
5.473381271088647e-07 0.0
5.247504876748493e-07 0.0
5.028860621473372e-07 0.0
4.817241307228318e-07 0.0
4.6125941682885783e-07 0.0
4.4150617310493984e-07 0.0
4.224378119404693e-07 0.0
4.040288830249042e-07 0.0
3.8623314241771843e-07 0.0
3.6908100141044194e-07 0.0
3.525634656458366e-07 0.0
3.366238710224118e-07 0.0
3.2128507050754235e-07 0.0
3.06545783953602e-07 0.0
2.923413922144547e-07 0.0
2.7871108266145946e-07 0.0
2.656112176748345e-07 0.0
2.5303125285922675e-07 0.0
2.409753135270968e-07 0.0
2.2939572342858313e-07 0.0
2.1829263868609784e-07 0.0
2.0765016808825055e-07 0.0
1.974599175600737e-07 0.0
1.876991985419054e-07 0.0
1.7835489623179626e-07 0.0
1.694117318264149e-07 0.0
1.6085483009429257e-07 0.0
1.5268353066434756e-07 0.0
1.4487607804275338e-07 0.0
1.3742005441626154e-07 0.0
1.3029927601874591e-07 0.0
1.2350455852338023e-07 0.0
1.1702796732897339e-07 0.0
1.1086872934248417e-07 0.0
1.0498226284312444e-07 0.0
9.938433562988486e-08 0.0
9.404677787442474e-08 0.0
8.895609821673737e-08 0.0
8.41248977255596e-08 0.0
7.954226065984187e-08 0.0
7.517125737078837e-08 0.0
7.10227563763609e-08 0.0
6.707712467102133e-08 0.0
6.33322571977495e-08 0.0
5.978983456614973e-08 0.0
5.6415913336673404e-08 0.0
5.321901517296342e-08 0.0
5.018682588208932e-08 0.0
4.730639587111949e-08 0.0
4.458276373807178e-08 0.0
4.2006653895252527e-08 0.0
3.9563753680710835e-08 0.0
3.7253101667581095e-08 0.0
3.5067396725967196e-08 0.0
3.299958558447568e-08 0.0
3.104596404253809e-08 0.0
2.9199902241151106e-08 0.0
2.745494135093568e-08 0.0
2.5806756743954923e-08 0.0
2.4249162201829174e-08 0.0
2.2780452447378554e-08 0.0
2.139543520052731e-08 0.0
2.008887888878065e-08 0.0
1.885739351469699e-08 0.0
1.7696380719426005e-08 0.0
1.660377507866112e-08 0.0
1.5574081246650277e-08 0.0
1.4600706875444428e-08 0.0
1.3686322737233584e-08 0.0
1.282903248426483e-08 0.0
1.2019746922551127e-08 0.0
1.1256165153989666e-08 0.0
1.0541151730724178e-08 0.0
9.870001598560369e-09 0.0
9.238040814558559e-09 0.0
8.64391490549546e-09 0.0
8.0861970708384e-09 0.0
7.561161062436775e-09 0.0
7.069565965602009e-09 0.0
6.6096909180793285e-09 0.0
6.176856544265626e-09 0.0
5.770778136955374e-09 0.0
5.390367899091093e-09 0.0
5.03235394804004e-09 0.0
4.69827069726569e-09 0.0
4.385431510693242e-09 0.0
4.0921105921549786e-09 0.0
3.8180647607606145e-09 0.0
3.5617252678301664e-09 0.0
3.3211855072223422e-09 0.0
3.096139266866733e-09 0.0
2.8857787987159563e-09 0.0
2.689242903921815e-09 0.0
2.5054477302081355e-09 0.0
2.3336738793403088e-09 0.0
2.1732038294915348e-09 0.0
2.0234080645812635e-09 0.0
1.8834655242312007e-09 0.0
1.7528431488930056e-09 0.0
1.6308332051524117e-09 0.0
1.5168644855245619e-09 0.0
1.4106420105788075e-09 0.0
1.3116051360448024e-09 0.0
1.2192433385237688e-09 0.0
1.133211736963592e-09 0.0
1.0530412422259778e-09 0.0
9.782498585150354e-10 0.0
9.08624916501124e-10 0.0
8.437171326171156e-10 0.0
7.832908665652799e-10 0.0
7.271034227856512e-10 0.0
6.74804177304158e-10 0.0
6.259671814177249e-10 0.0
5.807075564810526e-10 0.0
5.38601105150211e-10 0.0
4.994967419731646e-10 0.0
4.6308225908845555e-10 0.0
4.2922848374429185e-10 0.0
3.977776658054147e-10 0.0
3.685532779705806e-10 0.0
3.4139023345376577e-10 0.0
3.161419578384827e-10 0.0
2.9271088070636846e-10 0.0
2.7098870373928067e-10 0.0
2.508281362000781e-10 0.0
2.3212324232913782e-10 0.0
2.1478541487185968e-10 0.0
1.9870802264899083e-10 0.0
1.8374525692089497e-10 0.0
1.699130488395e-10 0.0
1.5710385856987153e-10 0.0
1.452411535860157e-10 0.0
1.3423847671239616e-10 0.0
1.2406157971243052e-10 0.0
1.1459555062729919e-10 0.0
1.0586601910540407e-10 0.0
9.778012140910656e-11 0.0
9.029038636833627e-11 0.0
8.336734940433832e-11 0.0
7.695851301102075e-11 0.0
7.102291875330166e-11 0.0
6.553345150321552e-11 0.0
6.045612630791804e-11 0.0
5.576130543285461e-11 0.0
5.1437310653173927e-11 0.0
4.742103052216178e-11 0.0
4.371861035363504e-11 0.0
4.029646221416317e-11 0.0
3.7137990959514205e-11 0.0
3.4225111522813105e-11 0.0
3.153549587089034e-11 0.0
2.904802807830031e-11 0.0
2.674574197845383e-11 0.0
2.462652607371003e-11 0.0
2.268048699901539e-11 0.0
2.0887216833797825e-11 0.0
1.922218732334382e-11 0.0
1.768952589452405e-11 0.0
1.627433947690538e-11 0.0
1.4970612129897473e-11 0.0
1.3768277286748793e-11 0.0
1.2661572932865138e-11 0.0
1.1642076260965878e-11 0.0
1.0700156846103539e-11 0.0
9.835311354185288e-12 0.0
9.039710676537266e-12 0.0
8.308651710411236e-12 0.0
7.634080715666515e-12 0.0
7.0127230190919685e-12 0.0
6.440449850894468e-12 0.0
5.914549911110291e-12 0.0
5.4331280975369926e-12 0.0
4.987196081236488e-12 0.0
4.577856755664852e-12 0.0
4.201726864628169e-12 0.0
3.855443466993516e-12 0.0
3.5386850886781053e-12 0.0
3.246166680957667e-12 0.0
2.977046845624957e-12 0.0
2.730423867284027e-12 0.0
2.5040492486313012e-12 0.0
2.2955456111126737e-12 0.0
2.1043726351193538e-12 0.0
1.9288953314246404e-12 0.0
1.7681137262437024e-12 0.0
1.6202695452982505e-12 0.0
1.483962040832408e-12 0.0
1.3596177802443297e-12 0.0
1.1370171844997577e-12 0.0
1.0297554563814909e-12 0.0
9.242547492977337e-13 0.0
8.215295221960388e-13 0.0
7.226714061562582e-13 0.0
6.283783403761527e-13 0.0
5.395161076681265e-13 0.0
4.569633676531984e-13 0.0
3.8127472913992774e-13 0.0
3.129217239500027e-13 0.0
2.523661757845852e-13 0.0
1.9937772297646838e-13 0.0
1.5429910370575096e-13 0.0
1.1649717679371646e-13 0.0
8.554357907231819e-14 0.0
6.120460845584697e-14 0.0
4.2535625379165647e-14 0.0
2.8402964547921186e-14 0.0
1.8419657476509168e-14 0.0
1.1385340671416159e-14 0.0
6.713482838473181e-15 0.0
3.751543805240498e-15 0.0
2.025797359567004e-15 0.0
9.97908563706293e-16 0.0
4.761207187478865e-16 0.0
2.100319601066763e-16 0.0
9.25233037260973e-17 0.0
4.4067154496297485e-17 0.0
2.5165509035043193e-17 0.0
1.7140166236915082e-17 0.0
1.2049134794362352e-17 0.0
1.0013714754812886e-17 0.0
1.2460860624555271e-17 0.0
1.695209811146417e-17 0.0
2.1543028450025547e-17 0.0
2.3244776773558098e-17 0.0
2.1083646391769646e-17 0.0
2.0599597760584765e-17 0.0
1.7658120205585884e-17 0.0
1.4065022113028562e-17 0.0
9.77358990698e-18 0.0
8.217170486720155e-18 0.0
1.9922136535717623e-17 0.0
4.4414461588707304e-17 0.0
4.103848449920897e-17 0.0
4.3389811621310386e-17 0.0
4.9300333166899123e-17 0.0
4.221357450605077e-17 0.0
3.809005175927948e-17 0.0
3.2067365402478605e-17 0.0
5.094028053154751e-17 0.0
1.771714569211797e-17 0.0
1.746571099677765e-17 0.0
-1.2557122696439223e-17 0.0
2.6561181279442258e-17 0.0
3.722197265194096e-17 0.0
4.401658879180342e-17 0.0
3.714953396164617e-17 0.0
5.131466154765519e-17 0.0
8.428015839542805e-17 0.0
6.276313775164606e-17 0.0
4.504415315187818e-17 0.0
9.692623843636147e-17 0.0
-4.495633610877181e-17 0.0
1.6011302336715893e-16 0.0
-4.4270883749494886e-17 0.0
3.971253118101103e-17 0.0
6.549835308455122e-17 0.0
-6.706393328803632e-17 0.0
1.5192256097925033e-16 0.0
-4.5961485337335285e-17 0.0
2.6368092121886108e-17 0.0
8.945744010869927e-17 0.0
-8.11640446806478e-17 0.0
1.6910846330655617e-16 0.0
5.195118947138478e-17 0.0
-1.3389226533664605e-16 0.0
5.5367560854763457e-17 0.0
-4.546452521187515e-17 0.0
0.0 0.009234165287258277
0.0 0.022109785930449898
0.0 0.040062852071526295
0.0 0.06509563926322853
-7.193428343042346e-17 0.1
-1.0284965841870087e-16 0.1
1.188289100313741e-15 0.1
-1.4272448368454928e-15 0.1
0.0 0.09234095951662849
0.0 0.08526779443702827
0.0 0.07873568783498557
0.0 0.07270325358169746
0.0 0.06713226878994362
0.0 0.06198743331091804
0.0 0.05723615233794988
0.0 0.05284831692952236
0.0 0.048796128449942154
0.0 0.045053910657843435
0.0 0.04159795282712584
0.0 0.03840635724257105
0.0 0.03545890171822354
0.0 0.032736910873327064
0.0 0.030223137736029092
0.0 0.0279016548382041
0.0 0.025757753001959136
0.0 0.02377784835211417
0.0 0.02194939580780343
0.0 0.020260810255894362
0.0 0.018701392223653864
0.0 0.01726126159503559
0.0 0.015931293336680228
0.0 0.014703060372940547
0.0 0.013568780782904716
0.0 0.012521267482861193
0.0 0.01155388341352377
0.0 0.010660499143843248
0.0 0.00983545392283152
0.0 0.009073520329637732
0.0 0.008369870608788847
0.0 0.007720046303381362
0.0 0.007119930012360051
0.0 0.006565719473503353
0.0 0.006053903138576229
0.0 0.005581237991570636
0.0 0.005144729225638571
0.0 0.004741611061428
0.0 0.004369329310645687
0.0 0.004025526920000475
0.0 0.00370805497433821
0.0 0.0034151664893550715
0.0 0.003145701232473911
0.0 0.0028988590636011835
0.0 0.002673043237039011
0.0 0.0024659083945835747
0.0 0.0022760380026099186
0.0 0.0021032851947583547
0.0 0.0019460643496058696
0.0 0.0018029785963733652
0.0 0.0016733438303555511
0.0 0.001556229060627298
0.0 0.0014503712497202887
0.0 0.001354950875692751
0.0 0.0012692424555903387
0.0 0.0011930168474687246
0.0 0.0011254656292440087
0.0 0.0010660278985920534
0.0 0.0010141055579454003
0.0 0.0009691665857225133
0.0 0.0009306536242583708
0.0 0.0008983597510332757
0.0 0.0008718817696396281
0.0 0.0008501026452979667
0.0 0.0008332419984844316
0.0 0.0008193741510850636
0.0 0.0008091530589359974
0.0 0.0008018970300342989
0.0 0.0007967748839196056
0.0 0.0007933800405415091
0.0 0.0007908990007996499
0.0 0.0007893792882201595
0.0 0.000788258501693823
0.0 0.000787385801284541
0.0 0.0007864381882982435
0.0 0.0007854729373894596
0.0 0.0007842988531706447
0.0 0.0007828959009599332
0.0 0.0007812687991189868
0.0 0.0007793188492658721
0.0 0.0007773554005313306
0.0 0.0007753389356913124
0.0 0.0007732631317768712
5.026468441544726e-17 0.004927245132661975
3.246813648900058e-09 0.002773877754177067
1.4083590854202869e-05 0.0015439827066290922
3.70629031709179e-05 0.0009460605371427811
4.155328625541512e-07 0.0014043674024105954
6.759494334654e-16 0.0022597849426057204
5.5093528021548485e-05 0.0006349741449141671
1.3067003249214984e-10 0.0012867735199327975
1.2367454603783778e-05 0.0007810463260841839
3.875429860302833e-06 0.0007705544611435998
4.288195384713749e-07 0.000709831229193245
8.916310305267774e-09 0.0006767783231139353
1.6508808847540737e-16 0.014973736461407984
5.7330613142512204e-11 0.0006657294958030425
8.93003297685107e-06 0.0004599256723094139
3.308084522901993e-06 0.0004380033332629616
8.533861365686507e-16 0.0011704180815627213
6.434963088475351e-05 0.0006019944253301062
4.115666679739204e-06 0.00038879177588563546
4.328515022169337e-06 0.0004226674019846505
2.717006783828188e-06 0.0004006131145932472
9.445393949152279e-07 0.0003773520978208996
1.8668047263221697e-07 0.0003780085143756116
2.493992347048202e-13 0.0006414990044328702
2.5642619082251208e-08 0.0003524723290887096
1.8004836455467736e-09 0.0003911918257548422
-1.8573908260169229e-16 0.04847397115433137
1.0305603990363909e-05 0.0003258379871221622
-1.4653792212472096e-05 0.0002572879851679682
1.5069794609225385e-10 0.00033400754273763136
5.899714824808419e-12 0.0003955732180120064
7.364712891505452e-17 0.007989497114757233
-4.598532357951064e-19 0.0037118346624275423