# vtk DataFile Version 3.0
Some data
ASCII
DATASET UNSTRUCTURED_GRID
POINTS 7930 float
0.0 0.0 0.0
0.0 10.0 0.0
10.0 10.0 0.0
10.0 0.0 0.0
0.5 0.0 0.0
0.0009999999999981016 0.0 0.0
0.001999999999996203 0.0 0.0
0.002999999999994305 0.0 0.0
0.003999999999992409 0.0 0.0
0.004999999999990531 0.0 0.0
0.005999999999988653 0.0 0.0
0.006999999999986775 0.0 0.0
0.007999999999984898 0.0 0.0
0.008999999999983018 0.0 0.0
0.009999999999981142 0.0 0.0
0.01099999999997926 0.0 0.0
0.01199999999997736 0.0 0.0
0.0129999999999754 0.0 0.0
0.01399999999997343 0.0 0.0
0.01499999999997147 0.0 0.0
0.01599999999996944 0.0 0.0
0.0169999999999673 0.0 0.0
0.01799999999996516 0.0 0.0
0.01899999999996302 0.0 0.0
0.01999999999996084 0.0 0.0
0.02099999999995862 0.0 0.0
0.02199999999995639 0.0 0.0
0.02299999999995417 0.0 0.0
0.02399999999995195 0.0 0.0
0.02499999999994972 0.0 0.0
0.0259999999999475 0.0 0.0
0.02699999999994527 0.0 0.0
0.02799999999994315 0.0 0.0
0.0289999999999411 0.0 0.0
0.02999999999993905 0.0 0.0
0.030999999999937 0.0 0.0
0.03199999999993521 0.0 0.0
0.0329999999999335 0.0 0.0
0.0339999999999318 0.0 0.0
0.03499999999993009 0.0 0.0
0.03599999999992853 0.0 0.0
0.036999999999927 0.0 0.0
0.03799999999992547 0.0 0.0
0.03899999999992394 0.0 0.0
0.03999999999992241 0.0 0.0
0.04099999999992088 0.0 0.0
0.04199999999991934 0.0 0.0
0.04299999999991782 0.0 0.0
0.04399999999991629 0.0 0.0
0.04499999999991475 0.0 0.0
0.04599999999991322 0.0 0.0
0.0469999999999117 0.0 0.0
0.04799999999991016 0.0 0.0
0.04899999999990863 0.0 0.0
0.0499999999999071 0.0 0.0
0.05099999999990557 0.0 0.0
0.05199999999990404 0.0 0.0
0.05299999999990251 0.0 0.0
0.05399999999990097 0.0 0.0
0.05499999999989943 0.0 0.0
0.05599999999989791 0.0 0.0
0.05699999999989638 0.0 0.0
0.05799999999989484 0.0 0.0
0.05899999999989317 0.0 0.0
0.05999999999989129 0.0 0.0
0.06099999999988941 0.0 0.0
0.06199999999988753 0.0 0.0
0.06299999999988531 0.0 0.0
0.06399999999988273 0.0 0.0
0.06499999999988015 0.0 0.0
0.06599999999987759 0.0 0.0
0.0669999999998748 0.0 0.0
0.06799999999987189 0.0 0.0
0.06899999999986897 0.0 0.0
0.06999999999986604 0.0 0.0
0.07099999999986313 0.0 0.0
0.0719999999998602 0.0 0.0
0.07299999999985729 0.0 0.0
0.07399999999985438 0.0 0.0
0.07499999999985145 0.0 0.0
0.07599999999984854 0.0 0.0
0.07699999999984562 0.0 0.0
0.0779999999998427 0.0 0.0
0.07899999999983978 0.0 0.0
0.07999999999983685 0.0 0.0
0.08099999999983394 0.0 0.0
0.08199999999983103 0.0 0.0
0.0829999999998281 0.0 0.0
0.08399999999982519 0.0 0.0
0.08499999999982226 0.0 0.0
0.08599999999981935 0.0 0.0
0.08699999999981643 0.0 0.0
0.0879999999998135 0.0 0.0
0.08899999999981059 0.0 0.0
0.08999999999980766 0.0 0.0
0.09099999999980475 0.0 0.0
0.09199999999980184 0.0 0.0
0.09299999999979891 0.0 0.0
0.093999999999796 0.0 0.0
0.09499999999979307 0.0 0.0
0.09599999999979016 0.0 0.0
0.09699999999978724 0.0 0.0
0.09799999999978432 0.0 0.0
0.0989999999997814 0.0 0.0
0.09999999999977847 0.0 0.0
0.1009999999997756 0.0 0.0
0.1019999999997726 0.0 0.0
0.1029999999997697 0.0 0.0
0.1039999999997668 0.0 0.0
0.1049999999997639 0.0 0.0
0.105999999999761 0.0 0.0
0.106999999999758 0.0 0.0
0.1079999999997551 0.0 0.0
0.1089999999997522 0.0 0.0
0.1099999999997493 0.0 0.0
0.1109999999997464 0.0 0.0
0.1119999999997434 0.0 0.0
0.1129999999997405 0.0 0.0
0.1139999999997376 0.0 0.0
0.1149999999997347 0.0 0.0
0.1159999999997318 0.0 0.0
0.1169999999997288 0.0 0.0
0.1179999999997259 0.0 0.0
0.118999999999723 0.0 0.0
0.1199999999997201 0.0 0.0
0.1209999999997172 0.0 0.0
0.1219999999997143 0.0 0.0
0.1229999999997113 0.0 0.0
0.1239999999997084 0.0 0.0
0.1249999999997055 0.0 0.0
0.1259999999997026 0.0 0.0
0.1269999999996997 0.0 0.0
0.1279999999996967 0.0 0.0
0.1289999999996938 0.0 0.0
0.1299999999996909 0.0 0.0
0.130999999999688 0.0 0.0
0.1319999999996851 0.0 0.0
0.1329999999996822 0.0 0.0
0.1339999999996792 0.0 0.0
0.1349999999996764 0.0 0.0
0.1359999999996734 0.0 0.0
0.1369999999996705 0.0 0.0
0.1379999999996676 0.0 0.0
0.1389999999996647 0.0 0.0
0.1399999999996618 0.0 0.0
0.1409999999996588 0.0 0.0
0.1419999999996559 0.0 0.0
0.142999999999653 0.0 0.0
0.1439999999996501 0.0 0.0
0.1449999999996472 0.0 0.0
0.1459999999996442 0.0 0.0
0.1469999999996414 0.0 0.0
0.1479999999996384 0.0 0.0
0.1489999999996355 0.0 0.0
0.1499999999996326 0.0 0.0
0.1509999999996297 0.0 0.0
0.1519999999996268 0.0 0.0
0.1529999999996239 0.0 0.0
0.1539999999996209 0.0 0.0
0.154999999999618 0.0 0.0
0.1559999999996151 0.0 0.0
0.1569999999996122 0.0 0.0
0.1579999999996093 0.0 0.0
0.1589999999996064 0.0 0.0
0.1599999999996035 0.0 0.0
0.1609999999996005 0.0 0.0
0.1619999999995976 0.0 0.0
0.1629999999995947 0.0 0.0
0.1639999999995918 0.0 0.0
0.1649999999995889 0.0 0.0
0.165999999999586 0.0 0.0
0.1669999999995831 0.0 0.0
0.1679999999995801 0.0 0.0
0.1689999999995772 0.0 0.0
0.1699999999995743 0.0 0.0
0.1709999999995714 0.0 0.0
0.1719999999995685 0.0 0.0
0.1729999999995655 0.0 0.0
0.1739999999995626 0.0 0.0
0.1749999999995597 0.0 0.0
0.1759999999995568 0.0 0.0
0.1769999999995539 0.0 0.0
0.177999999999551 0.0 0.0
0.178999999999548 0.0 0.0
0.1799999999995451 0.0 0.0
0.1809999999995422 0.0 0.0
0.1819999999995393 0.0 0.0
0.1829999999995364 0.0 0.0
0.1839999999995335 0.0 0.0
0.1849999999995305 0.0 0.0
0.1859999999995277 0.0 0.0
0.1869999999995247 0.0 0.0
0.1879999999995218 0.0 0.0
0.1889999999995189 0.0 0.0
0.189999999999516 0.0 0.0
0.1909999999995131 0.0 0.0
0.1919999999995101 0.0 0.0
0.1929999999995072 0.0 0.0
0.1939999999995043 0.0 0.0
0.1949999999995014 0.0 0.0
0.1959999999994985 0.0 0.0
0.1969999999994956 0.0 0.0
0.1979999999994927 0.0 0.0
0.1989999999994897 0.0 0.0
0.1999999999994868 0.0 0.0
0.2009999999994839 0.0 0.0
0.201999999999481 0.0 0.0
0.2029999999994781 0.0 0.0
0.2039999999994752 0.0 0.0
0.2049999999994722 0.0 0.0
0.2059999999994693 0.0 0.0
0.2069999999994664 0.0 0.0
0.2079999999994635 0.0 0.0
0.2089999999994606 0.0 0.0
0.2099999999994577 0.0 0.0
0.2109999999994548 0.0 0.0
0.2119999999994518 0.0 0.0
0.2129999999994489 0.0 0.0
0.213999999999446 0.0 0.0
0.2149999999994431 0.0 0.0
0.2159999999994402 0.0 0.0
0.2169999999994373 0.0 0.0
0.2179999999994343 0.0 0.0
0.2189999999994314 0.0 0.0
0.2199999999994285 0.0 0.0
0.2209999999994256 0.0 0.0
0.2219999999994227 0.0 0.0
0.2229999999994198 0.0 0.0
0.2239999999994168 0.0 0.0
0.2249999999994139 0.0 0.0
0.225999999999411 0.0 0.0
0.2269999999994081 0.0 0.0
0.2279999999994052 0.0 0.0
0.2289999999994023 0.0 0.0
0.2299999999993994 0.0 0.0
0.2309999999993964 0.0 0.0
0.2319999999993935 0.0 0.0
0.2329999999993906 0.0 0.0
0.2339999999993877 0.0 0.0
0.2349999999993848 0.0 0.0
0.2359999999993818 0.0 0.0
0.236999999999379 0.0 0.0
0.237999999999376 0.0 0.0
0.2389999999993731 0.0 0.0
0.2399999999993702 0.0 0.0
0.2409999999993673 0.0 0.0
0.2419999999993644 0.0 0.0
0.2429999999993615 0.0 0.0
0.2439999999993585 0.0 0.0
0.2449999999993556 0.0 0.0
0.2459999999993527 0.0 0.0
0.246999999999351 0.0 0.0
0.2479999999993495 0.0 0.0
0.248999999999348 0.0 0.0
0.2499999999993464 0.0 0.0
0.2509999999993477 0.0 0.0
0.2519999999993489 0.0 0.0
0.2529999999993502 0.0 0.0
0.2539999999993516 0.0 0.0
0.2549999999993542 0.0 0.0
0.2559999999993569 0.0 0.0
0.2569999999993595 0.0 0.0
0.2579999999993621 0.0 0.0
0.2589999999993647 0.0 0.0
0.2599999999993673 0.0 0.0
0.26099999999937 0.0 0.0
0.2619999999993726 0.0 0.0
0.2629999999993753 0.0 0.0
0.2639999999993779 0.0 0.0
0.2649999999993806 0.0 0.0
0.2659999999993832 0.0 0.0
0.2669999999993858 0.0 0.0
0.2679999999993884 0.0 0.0
0.2689999999993911 0.0 0.0
0.2699999999993937 0.0 0.0
0.2709999999993963 0.0 0.0
0.271999999999399 0.0 0.0
0.2729999999994017 0.0 0.0
0.2739999999994043 0.0 0.0
0.2749999999994069 0.0 0.0
0.2759999999994096 0.0 0.0
0.2769999999994122 0.0 0.0
0.2779999999994148 0.0 0.0
0.2789999999994174 0.0 0.0
0.2799999999994201 0.0 0.0
0.2809999999994228 0.0 0.0
0.2819999999994254 0.0 0.0
0.282999999999428 0.0 0.0
0.2839999999994306 0.0 0.0
0.2849999999994333 0.0 0.0
0.2859999999994359 0.0 0.0
0.2869999999994385 0.0 0.0
0.2879999999994411 0.0 0.0
0.2889999999994439 0.0 0.0
0.2899999999994465 0.0 0.0
0.2909999999994491 0.0 0.0
0.2919999999994517 0.0 0.0
0.2929999999994544 0.0 0.0
0.293999999999457 0.0 0.0
0.2949999999994596 0.0 0.0
0.2959999999994622 0.0 0.0
0.2969999999994649 0.0 0.0
0.2979999999994676 0.0 0.0
0.2989999999994702 0.0 0.0
0.2999999999994728 0.0 0.0
0.3009999999994754 0.0 0.0
0.3019999999994781 0.0 0.0
0.3029999999994807 0.0 0.0
0.3039999999994834 0.0 0.0
0.304999999999486 0.0 0.0
0.3059999999994886 0.0 0.0
0.3069999999994913 0.0 0.0
0.3079999999994939 0.0 0.0
0.3089999999994965 0.0 0.0
0.3099999999994992 0.0 0.0
0.3109999999995018 0.0 0.0
0.3119999999995045 0.0 0.0
0.3129999999995071 0.0 0.0
0.3139999999995097 0.0 0.0
0.3149999999995123 0.0 0.0
0.315999999999515 0.0 0.0
0.3169999999995176 0.0 0.0
0.3179999999995203 0.0 0.0
0.3189999999995229 0.0 0.0
0.3199999999995256 0.0 0.0
0.3209999999995282 0.0 0.0
0.3219999999995308 0.0 0.0
0.3229999999995334 0.0 0.0
0.323999999999536 0.0 0.0
0.3249999999995387 0.0 0.0
0.3259999999995414 0.0 0.0
0.326999999999544 0.0 0.0
0.3279999999995466 0.0 0.0
0.3289999999995493 0.0 0.0
0.3299999999995519 0.0 0.0
0.3309999999995545 0.0 0.0
0.3319999999995571 0.0 0.0
0.3329999999995598 0.0 0.0
0.3339999999995625 0.0 0.0
0.3349999999995651 0.0 0.0
0.3359999999995677 0.0 0.0
0.3369999999995703 0.0 0.0
0.337999999999573 0.0 0.0
0.3389999999995756 0.0 0.0
0.3399999999995783 0.0 0.0
0.3409999999995809 0.0 0.0
0.3419999999995835 0.0 0.0
0.3429999999995862 0.0 0.0
0.3439999999995888 0.0 0.0
0.3449999999995914 0.0 0.0
0.345999999999594 0.0 0.0
0.3469999999995967 0.0 0.0
0.3479999999995994 0.0 0.0
0.348999999999602 0.0 0.0
0.3499999999996046 0.0 0.0
0.3509999999996072 0.0 0.0
0.3519999999996099 0.0 0.0
0.3529999999996125 0.0 0.0
0.3539999999996151 0.0 0.0
0.3549999999996178 0.0 0.0
0.3559999999996205 0.0 0.0
0.3569999999996231 0.0 0.0
0.3579999999996257 0.0 0.0
0.3589999999996283 0.0 0.0
0.359999999999631 0.0 0.0
0.3609999999996336 0.0 0.0
0.3619999999996362 0.0 0.0
[...]
POINT_DATA 7930
SCALARS Disp float 2
LOOKUP_TABLE default
0.0 0.0015495293240882352
0.0 0.1
0.0 0.1
0.0 0.0
5.97599899519432e-06 0.0
-6.89657521354663e-06 0.0015493315179712138
-1.3797093731385741e-05 0.001549000889745865
-2.0654913245074008e-05 0.0015481464129535848
-2.7384166523487468e-05 0.0015467198151629955
-3.411169781041051e-05 0.0015456238948055236
-4.1199740026927754e-05 0.0015447468627904112
-4.817704024709318e-05 0.0015421889889872563
-5.4564961798478996e-05 0.0015388646707279899
-6.109527529503369e-05 0.0015370292814562683
-6.821270128079471e-05 0.0015359572231953735
-7.556990605669066e-05 0.0015324246293875242
-8.203559631699904e-05 0.0015273790811819127
-8.82615910570825e-05 0.0015240428514040193
-9.53964664030849e-05 0.0015219650520847522
-0.00010288843252544418 0.0015176418570229675
-0.00010933127453362463 0.0015111467446174095
-0.00011543661864437104 0.0015064557515044772
-0.00012260121547317656 0.0015033221526025283
-0.00013033662748610173 0.0014977277066058137
-0.00013668135594682566 0.0014893309900802954
-0.0001425464262853033 0.001483514076959656
-0.00014961274927372084 0.0014798164552982198
-0.00015736809882545345 0.0014733440092871619
-0.00016399938734521942 0.0014636063328678573
-0.00016979936103837066 0.0014559165153804389
-0.00017694931870474768 0.0014513030361848493
-0.00018465232011589025 0.001443605454929962
-0.0001915294435389159 0.0014323090302737608
-0.00019747687289891616 0.0014227524768195042
-0.0002044162550975837 0.0014163140732757395
-0.000212071773054737 0.0014075880948926798
-0.0002190060731616369 0.0013946666890783052
-0.0002248205032137816 0.0013834081338426664
-0.00023165699351622058 0.0013759544054571407
-0.00023949594846111002 0.0013658546729371675
-0.0002466824238788423 0.0013510734999363282
-0.00025255267545702616 0.0013376487814328482
-0.0002592661841156348 0.001328266479803371
-0.00026706207249713664 0.0013166234170599712
-0.00027403593483315506 0.0012997462727941836
-0.0002795789461296548 0.0012844005022702545
-0.00028614587941327703 0.0012737951069620565
-0.0002939899448900705 0.0012607037316196988
-0.00030150307470385145 0.0012419746178929307
-0.00030728117771050323 0.0012238919166902688
-0.000313741394237133 0.0012106803806967805
-0.00032194058130567 0.0011956637124651143
-0.0003290177638018665 0.0011742413658530901
-0.0003346342000705528 0.001153482767141001
-0.000340807390826232 0.0011376557449021018
-0.0003488800335729056 0.0011202752970596976
-0.00035613451085906526 0.001096366250240413
-0.00036175951944811583 0.001071952903730525
-0.00036771074181929717 0.0010535255783119491
-0.0003759287140863978 0.0010334764069439032
-0.00038371492907537306 0.0010059271315713961
-0.0003894459989398756 0.0009773597303234214
-0.0003951483121627272 0.0009540086494289985
-0.0004031611300278109 0.0009296050868442716
-0.00041059911186562987 0.0008977782174093727
-0.00041639377949133745 0.0008639965558817535
-0.00042219242771431926 0.0008351092143054935
-0.000430065935738598 0.0008050454468648828
-0.0004377105241432863 0.0007665596120240739
-0.0004437728277203024 0.000724685308437883
-0.00044927272300922364 0.0006866633809184162
-0.0004570998521901491 0.0006463606821152123
-0.00046476004410151046 0.0005957301051922952
-0.00047133731008889266 0.0005378560540591874
-0.00047602765658151015 0.00048062866352521246
-0.00048331363543639624 0.0004141101953112375
-0.0004866392534773934 0.00032767914903931745
-0.0004834243188625235 0.00020900395722535373
-0.0004581077778365769 0.0
-0.0004142768633753617 0.0
-0.00038778979636203305 0.0
-0.00036687101486415294 0.0
-0.00035050401630624283 0.0
-0.00033608007304709495 0.0
-0.00032370959275598285 0.0
-0.00031265152346472876 0.0
-0.00030263078096787855 0.0
-0.00029353209299539274 0.0
-0.00028525579993320544 0.0
-0.000277529744085149 0.0
-0.000270269768056806 0.0
-0.00026350857157872746 0.0
-0.00025714089887392445 0.0
-0.00025114990463973085 0.0
-0.00024545891525777386 0.0
-0.0002400518653445513 0.0
-0.00023490796496873707 0.0
-0.00022999096575780322 0.0
-0.0002252878235326278 0.0
-0.00022080040311683343 0.0
-0.0002164887970493197 0.0
-0.0002123147231428209 0.0
-0.00020829834725966662 0.0
-0.0002044049471679167 0.0
-0.00020066067736842016 0.0
-0.00019703691667820997 0.0
-0.00019354352490862613 0.0
-0.00019016656184844277 0.0
-0.00018690096478568327 0.0
-0.0001837377256081901 0.0
-0.0001806489021804002 0.0
-0.00017766923985188129 0.0
-0.00017480770193494715 0.0
-0.00017197562636075059 0.0
-0.0001692478186148284 0.0
-0.0001666011604533142 0.0
-0.0001640157387039727 0.0
-0.0001615023544545957 0.0
-0.00015905517703849943 0.0
-0.0001566612027102987 0.0
-0.00015432812386023033 0.0
-0.00015205516144809026 0.0
-0.0001498367704307242 0.0
-0.00014768346082354825 0.0
-0.0001455433583411269 0.0
-0.0001434721810882955 0.0
-0.0001414382410227118 0.0
-0.00013945595539709455 0.0
-0.00013750307829880491 0.0
-0.0001355980027507416 0.0
-0.00013373142602066332 0.0
-0.00013190328708345957 0.0
-0.00013011198436425485 0.0
-0.00012835862285778178 0.0
-0.0001266409713305066 0.0
-0.0001249569123356607 0.0
-0.00012330484708602914 0.0
-0.00012168912016543314 0.0
-0.00012010971859792273 0.0
-0.00011854470751607205 0.0
-0.00011701605757073955 0.0
-0.00011551056011755368 0.0
-0.00011403159683958237 0.0
-0.00011257561474991975 0.0
-0.00011114293034951261 0.0
-0.00010973437023975682 0.0
-0.00010834855531384492 0.0
-0.0001069844638394362 0.0
-0.00010563898477634499 0.0
-0.00010431542520040992 0.0
-0.00010301295355217793 0.0
-0.00010172975051640738 0.0
-0.00010046759383492416 0.0
-9.922486675083007e-05 0.0
-9.800022605802204e-05 0.0
-9.6794739385351e-05 0.0
-9.560832955571126e-05 0.0
-9.443909636190761e-05 0.0
-9.3287005866884e-05 0.0
-9.21539124912061e-05 0.0
-9.104040850023785e-05 0.0
-8.993701095992137e-05 0.0
-8.885607818571485e-05 0.0
-8.778876076807261e-05 0.0
-8.67366212714874e-05 0.0
-8.570170074320021e-05 0.0
-8.467313045943912e-05 0.0
-8.366442478265374e-05 0.0
-8.266816932355946e-05 0.0
-8.168400288189807e-05 0.0
-8.071282652943528e-05 0.0
-7.975350122296548e-05 0.0
-7.880548306289745e-05 0.0
-7.786818129042071e-05 0.0
-7.694209720916838e-05 0.0
-7.60264417815475e-05 0.0
-7.512011067516006e-05 0.0
-7.422530782196474e-05 0.0
-7.33417259790486e-05 0.0
-7.246764398338926e-05 0.0
-7.16031196941261e-05 0.0
-7.074912248567737e-05 0.0
-6.99057447380632e-05 0.0
-6.907067262977017e-05 0.0
-6.824530969854054e-05 0.0
-6.74301202913412e-05 0.0
-6.662378906204112e-05 0.0
-6.582645411904118e-05 0.0
-6.503841221165923e-05 0.0
-6.426029390963931e-05 0.0
-6.349044033360121e-05 0.0
-6.272972086277571e-05 0.0
-6.197798628038703e-05 0.0
-6.123501003333745e-05 0.0
-6.050117558093995e-05 0.0
-5.977666020299298e-05 0.0
-5.906025963340438e-05 0.0
-5.8352575577036336e-05 0.0
-5.765309045945904e-05 0.0
-5.696220620756152e-05 0.0
-5.628037036752151e-05 0.0
-5.560620445914829e-05 0.0
-5.493958658626129e-05 0.0
-5.428138055730545e-05 0.0
-5.363011740203754e-05 0.0
-5.2986262347118175e-05 0.0
-5.234995381608477e-05 0.0
-5.172064546108595e-05 0.0
-5.10976721901319e-05 0.0
-5.0482211030297196e-05 0.0
-4.9870924427454793e-05 0.0
-4.926567719918394e-05 0.0
-4.866619012085862e-05 0.0
-4.807278203884557e-05 0.0
-4.748436389398648e-05 0.0
-4.690107676838298e-05 0.0
-4.632298534710375e-05 0.0
-4.574936944616256e-05 0.0
-4.5180484380198506e-05 0.0
-4.461808364998136e-05 0.0
-4.405757771031902e-05 0.0
-4.3503076946614174e-05 0.0
-4.295368010703312e-05 0.0
-4.240844551008805e-05 0.0
-4.1868166810067366e-05 0.0
-4.133298083294272e-05 0.0
-4.0802720614053624e-05 0.0
-4.027735095147126e-05 0.0
-3.975726228349106e-05 0.0
-3.924245598933054e-05 0.0
-3.8732814887705946e-05 0.0
-3.822878832045056e-05 0.0
-3.772999108183852e-05 0.0
-3.723649580421102e-05 0.0
-3.674846760876679e-05 0.0
-3.626552854339807e-05 0.0
-3.578755040894019e-05 0.0
-3.531487191342211e-05 0.0
-3.484734460973363e-05 0.0
-3.4384298465104893e-05 0.0
-3.392636896559832e-05 0.0
-3.347281309070117e-05 0.0
-3.3023926078098666e-05 0.0
-3.257929523569255e-05 0.0
-3.21386117203611e-05 0.0
-3.170171465397086e-05 0.0
-3.1268475321947674e-05 0.0
-3.0838880026329e-05 0.0
-3.0412433146312196e-05 0.0
-2.9989324173206325e-05 0.0
-2.9569821815260183e-05 0.0
-2.9152939043839596e-05 0.0
-2.87389890823335e-05 0.0
-2.8328336540486197e-05 0.0
-2.7920511148691696e-05 0.0
-2.7515627509747198e-05 0.0
-2.7113667662167746e-05 0.0
-2.6714456909352037e-05 0.0
-2.6318261308073257e-05 0.0
-2.5925322504634133e-05 0.0
-2.553528747014935e-05 0.0
-2.5148481521791594e-05 0.0
-2.476494250974356e-05 0.0
-2.4384859123810212e-05 0.0
-2.4008283995393386e-05 0.0
-2.3635262969451583e-05 0.0
-2.326575656266957e-05 0.0
-2.2899825949952467e-05 0.0
-2.253769253710036e-05 0.0
-2.2179172577116076e-05 0.0
-2.1824553720842103e-05 0.0
-2.1473823139016308e-05 0.0
-2.112685167298842e-05 0.0
-2.0783090431387382e-05 0.0
-2.0443701775252368e-05 0.0
-2.0107288408270277e-05 0.0
-1.977523496439745e-05 0.0
-1.9445811877269285e-05 0.0
-1.9119965525083324e-05 0.0
-1.8797389461745182e-05 0.0
-1.8478081654210484e-05 0.0
-1.81618412850862e-05 0.0
-1.784840416807948e-05 0.0
-1.7537821259879907e-05 0.0
-1.7229928097574532e-05 0.0
-1.692455667354872e-05 0.0
-1.6621527057454025e-05 0.0
-1.6320824146013596e-05 0.0
-1.6022353066879572e-05 0.0
-1.5725858427116394e-05 0.0
-1.5431402641019794e-05 0.0
-1.5138997586624862e-05 0.0
-1.4848541051706393e-05 0.0
-1.4560056068066788e-05 0.0
-1.4272478426056694e-05 0.0
-1.3987325756241352e-05 0.0
-1.3703938726569917e-05 0.0
-1.3422362120972602e-05 0.0
-1.314307839497013e-05 0.0
-1.2864878092212929e-05 0.0
-1.258874011582635e-05 0.0
-1.2314659907339345e-05 0.0
-1.2042670619127674e-05 0.0
-1.1772646835645635e-05 0.0
-1.1504756196770705e-05 0.0
-1.1238978441248904e-05 0.0
-1.0975551445914711e-05 0.0
-1.0714402093573696e-05 0.0
-1.0455613773243612e-05 0.0
-1.0199301298779508e-05 0.0
-9.945519780241977e-06 0.0
-9.694328261921025e-06 0.0
-9.444954785726533e-06 0.0
-9.198494679668914e-06 0.0
-8.954696805382906e-06 0.0
-8.71356648929651e-06 0.0
-8.475365172195955e-06 0.0
-8.238876105295158e-06 0.0
-8.005015095414992e-06 0.0
-7.773691088712705e-06 0.0
-7.544828917486941e-06 0.0
-7.318386175205876e-06 0.0
-7.094473273053891e-06 0.0
-6.872781057633076e-06 0.0
-6.653182830910769e-06 0.0
-6.435712559350525e-06 0.0
-6.220337652125353e-06 0.0
-6.0068561476815366e-06 0.0
-5.79521517204769e-06 0.0
-5.585484398172701e-06 0.0
-5.377603637498694e-06 0.0
-5.1713330727448465e-06 0.0
-4.966629978904147e-06 0.0
-4.763600129729237e-06 0.0
-4.562104550027194e-06 0.0
-4.361979961460316e-06 0.0
-4.163331832886769e-06 0.0
-3.965999946742923e-06 0.0
-3.770093117855991e-06 0.0
-3.57550187716763e-06 0.0
-3.38219684437437e-06 0.0
-3.1901549222107695e-06 0.0
-2.999413394367913e-06 0.0
-2.8100843512050066e-06 0.0
-2.6221158589509978e-06 0.0
-2.435479228754743e-06 0.0
-2.2501921930708933e-06 0.0
-2.0663664094757084e-06 0.0
-1.8840293767076093e-06 0.0
-1.7031933831764805e-06 0.0
-1.5239246533977096e-06 0.0
-1.3463191781799208e-06 0.0
-1.1703419934727266e-06 0.0
-9.959608620004409e-07 0.0
-8.234159062080861e-07 0.0
-6.527604509251442e-07 0.0
-4.837905281734835e-07 0.0
-3.168216181649417e-07 0.0
-1.5170504083009603e-07 0.0
1.1449945917996827e-08 0.0
1.724635394451931e-07 0.0
3.315616559580497e-07 0.0
4.88551945466753e-07 0.0
6.434845851416096e-07 0.0
7.964428219148491e-07 0.0
9.471813175509068e-07 0.0
1.0957306977409842e-06 0.0
1.2422157824268532e-06 0.0
1.3865321063507417e-06 0.0
1.5287397429556309e-06 0.0
1.6688611656142502e-06 0.0
1.8068244801863967e-06 0.0
1.9426886671070727e-06 0.0
2.0764263893956555e-06 0.0
2.2084549084513466e-06 0.0
2.3383260629639913e-06 0.0
2.4661390164455843e-06 0.0
2.5919585569508397e-06 0.0
2.7158424760846595e-06 0.0
2.8377931491995154e-06 0.0
2.9578814191755765e-06 0.0
3.0760783945052825e-06 0.0
3.1924032156121694e-06 0.0
3.307164533136985e-06 0.0
3.4200083349075312e-06 0.0
3.5308631069427313e-06 0.0
3.640130429210114e-06 0.0
3.747795471946845e-06 0.0
3.853508635281166e-06 0.0
3.957447024352902e-06 0.0
4.059742963664413e-06 0.0
4.160371544071599e-06 0.0
4.259228201761093e-06 0.0
4.3564895973927226e-06 0.0
4.451866532060738e-06 0.0
4.545310154312851e-06 0.0
4.637168809290613e-06 0.0
4.727224788167756e-06 0.0
4.815460638040327e-06 0.0
4.902050109257258e-06 0.0
4.98657154811093e-06 0.0
5.069181713001059e-06 0.0
5.1499638027262135e-06 0.0
5.228698641144378e-06 0.0
5.305415544211824e-06 0.0
5.380309869509894e-06 0.0
5.4531858244092245e-06 0.0
5.524004941938671e-06 0.0
5.592736137715663e-06 0.0
5.6594393129100995e-06 0.0
5.724062741141261e-06 0.0
5.786601874094038e-06 0.0
5.84700774360545e-06 0.0
5.905359615529495e-06 0.0
5.961600425422104e-06 0.0
6.015800471399171e-06 0.0
6.067977716767994e-06 0.0
6.1180209099539514e-06 0.0
6.165978344824487e-06 0.0
6.211901093690915e-06 0.0
6.2557429550513075e-06 0.0
6.297588613319926e-06 0.0
6.337540873622611e-06 0.0
6.37551898595456e-06 0.0
6.411642456923065e-06 0.0
6.445905092090697e-06 0.0
6.478307467320808e-06 0.0
6.50893840671058e-06 0.0
6.537999373386525e-06 0.0
6.565231056678931e-06 0.0
6.590839379296244e-06 0.0
6.6148325026131885e-06 0.0
6.637364332043298e-06 0.0
6.658465882110611e-06 0.0
6.6781366725102456e-06 0.0
6.696453075073715e-06 0.0
6.713497356016048e-06 0.0
6.7292951089425085e-06 0.0
6.7438518700209505e-06 0.0
6.757315120996685e-06 0.0
6.7696275038418354e-06 0.0
6.780902301312072e-06 0.0
6.791161265972762e-06 0.0
6.800457069472903e-06 0.0
6.808930301861681e-06 0.0
6.816446585075903e-06 0.0
6.823098994939976e-06 0.0
6.828920541970481e-06 0.0
6.833983949591555e-06 0.0
6.8383129968705825e-06 0.0
6.841965977204766e-06 0.0
6.844843766989485e-06 0.0
6.847053421011328e-06 0.0
6.8486172280582185e-06 0.0
6.84948405409037e-06 0.0
6.849719286271085e-06 0.0
6.849343242541729e-06 0.0
6.848332100592724e-06 0.0
6.8466906425874705e-06 0.0
6.8444187367602166e-06 0.0
6.841457521872511e-06 0.0
6.837902093264917e-06 0.0
6.833691084762459e-06 0.0
6.828819958998825e-06 0.0
6.823274158926915e-06 0.0
6.817005907080883e-06 0.0
6.810048744447587e-06 0.0
6.8024129934995854e-06 0.0
6.79411144355196e-06 0.0
6.7850425785726175e-06 0.0
6.775149218434408e-06 0.0
6.764489715136698e-06 0.0
6.753139291959267e-06 0.0
6.7409891936152225e-06 0.0
6.728067642953765e-06 0.0
6.714334077143973e-06 0.0
6.699797218450144e-06 0.0
6.684416894669143e-06 0.0
6.668197763320726e-06 0.0
6.651186642585364e-06 0.0
6.6332898607195305e-06 0.0
6.614546327897146e-06 0.0
6.59493921137033e-06 0.0
6.574522283533399e-06 0.0
6.553287636554244e-06 0.0
6.531235624530343e-06 0.0
6.50834535674759e-06 0.0
6.4845941993928255e-06 0.0
6.4601293515318025e-06 0.0
6.434856522784114e-06 0.0
6.408807201546639e-06 0.0
6.382020964972279e-06 0.0
6.354447694640563e-06 0.0
6.326228887961433e-06 0.0
6.29733154401164e-06 0.0
6.267749910587735e-06 0.0
6.237518569142067e-06 0.0
6.2067076652977545e-06 0.0
6.1752906079914354e-06 0.0
6.143309830481527e-06 0.0
6.110777901857622e-06 0.0
6.077758289106391e-06 0.0
6.044301963768413e-06 0.0
6.010356818046588e-06 0.0
5.940005263089473e-06 0.0
5.900436819252455e-06 0.0
5.856975068369278e-06 0.0
5.809250177099899e-06 0.0
5.75687161271062e-06 0.0
5.699451547104682e-06 0.0
5.636570061247158e-06 0.0
5.56779063571048e-06 0.0
5.492698548474906e-06 0.0
5.410856775761503e-06 0.0
5.32184296871906e-06 0.0
5.225238812849813e-06 0.0
5.12056592116734e-06 0.0
5.007345035543709e-06 0.0
4.884913931466891e-06 0.0
4.752482187853727e-06 0.0
4.608785167675522e-06 0.0
4.452292050052603e-06 0.0
4.2806479625300405e-06 0.0
4.091143097789252e-06 0.0
3.8800782615115665e-06 0.0
3.643200233122313e-06 0.0
3.376188716158731e-06 0.0
3.0768868087875117e-06 0.0
2.74363220381412e-06 0.0
2.379891013878249e-06 0.0
1.9944669978626854e-06 0.0
1.602659244453058e-06 0.0
1.2237502805598298e-06 0.0
8.791599314897283e-07 0.0
5.879031077152992e-07 0.0
3.609169570565701e-07 0.0
1.988942167846193e-07 0.0
9.840520258017808e-08 0.0
4.221868471406423e-08 0.0
1.5235592554679493e-08 0.0
4.394300636648152e-09 0.0
1.0200274981401875e-09 0.0
2.036248403866739e-10 0.0
2.959773705756767e-11 0.0
2.319500084319099e-12 0.0
8.873146248663031e-14 0.0
7.806459556259575e-15 0.0
-4.988170634828193e-16 0.0
2.328438106426863e-16 0.0
1.3603132509236656e-16 0.0
-6.237167907433826e-17 0.0
-2.216001398806007e-17 0.0
-1.6997480524075798e-17 0.0
-9.403817224839928e-17 0.0
-1.771296894955197e-17 0.0
3.641561622905096e-17 0.0
-3.510942105403538e-17 0.0
-8.423299459015915e-18 0.0
2.3784581372424152e-17 0.0
-4.453264162260197e-18 0.0
-4.22069349692756e-17 0.0
-1.5621563783719001e-16 0.0
-6.931904121483247e-17 0.0
1.5632261784244596e-16 0.0
4.927269951388666e-16 0.0
3.8882094083778754e-16 0.0
3.637057681757102e-17 0.0
-2.177492109907137e-17 0.0
-3.560929521695124e-16 0.0
-1.5318628688348798e-16 0.0
2.4728491686659216e-17 0.0
7.872403899637849e-17 0.0
-5.963504838359389e-17 0.0
6.932570521167914e-17 0.0
7.079096062057841e-17 0.0
6.204827334235625e-16 0.0
-1.0034532667695487e-15 0.0
4.21916403388825e-17 0.0
1.4396283567065526e-15 0.0
-6.543224443900744e-16 0.0
-4.160981873847859e-16 0.0
4.623507552433262e-16 0.0
-7.187312828232634e-16 0.0
0.0 0.009234165287260114
0.0 0.022109785930457797
0.0 0.04006285207148053
0.0 0.06509563926315297
-9.358729187064752e-16 0.1
-1.4583651188912526e-15 0.1
1.6813708019171218e-14 0.1
-1.8410083343071258e-14 0.1
0.0 0.0923409595166132
0.0 0.08526779443703109
0.0 0.07873568783498149
0.0 0.07270325358166362
0.0 0.06713226878994204
0.0 0.06198743331092809
0.0 0.05723615233795934
0.0 0.052848316929522826
0.0 0.048796128449948364
0.0 0.04505391065784454
0.0 0.04159795282711711
0.0 0.03840635724257278
0.0 0.03545890171822593
0.0 0.03273691087333027
0.0 0.030223137736033336
0.0 0.027901654838206568
0.0 0.025757753001962865
0.0 0.023777848352117374
0.0 0.021949395807804317
0.0 0.020260810255895368
0.0 0.01870139222365468
0.0 0.01726126159503859
0.0 0.015931293336693686
0.0 0.014703060372817581
0.0 0.013568780783213058
0.0 0.012521267482296903
0.0 0.011553883403823382
0.0 0.01066049924120379
0.0 0.009835453677102009
0.0 0.009073520728343595
0.0 0.00836987441150809
0.0 0.0077200851033615734
0.0 0.007119638455402568
0.0 0.006566777961228301
0.0 0.00606065358326917
0.0 0.005596101381781122
0.0 0.005170362521267008
0.0 0.004780067660484469
0.0 0.0044237834281200495
0.0 0.004098796362347093
0.0 0.0038031681686022103
0.0 0.003534760729562615
0.0 0.0032910490503159865
0.0 0.0030701754171285995
0.0 0.0028711857520172398
0.0 0.0026917616326193857
0.0 0.002530913318458038
0.0 0.002387444976768102
0.0 0.002259426758724862
0.0 0.0021467542325750272
0.0 0.0020486521062799165
0.0 0.001962911790120115
0.0 0.0018890157155391216
0.0 0.0018264540645052867
0.0 0.0017733493845344258
0.0 0.0017295797163565062
0.0 0.0016938648067689169
0.0 0.0016653995894530139
0.0 0.0016430173775685757
0.0 0.0016259203097944938
0.0 0.001612831778256432
0.0 0.0016033245187300103
0.0 0.0015970033290144943
0.0 0.001592011205735125
0.0 0.0015891978141301486
0.0 0.0015863750736286738
0.0 0.0015846158425202542
0.0 0.0015832323875485462
0.0 0.0015819031091971192
0.0 0.0015806167598496747
0.0 0.0015790814223890141
0.0 0.0015774438748291015
0.0 0.0015755358710418813
0.0 0.0015734613829612143
0.0 0.0015711678695438836
0.0 0.001568848332337213
0.0 0.0015664499106533792
0.0 0.0015640003396951872
0.0 0.0015615197051553648
0.0 0.0015589708497158767
0.0 0.0015565341303068589
0.0 0.001554159782992878
0.0 0.0015518228358393418
-9.717423774082279e-08 0.004927186635634971
4.1726467074849155e-05 0.0027925971475138
8.374567975894685e-05 0.0016577195800696447
0.00012062527538522262 0.0012337193353508147
2.582572151021173e-05 0.0014040135004832965
5.947089252327966e-06 0.0022615236287816995
0.0001140421742358855 0.001256763498642705
1.1853990060094976e-05 0.0012855362672457835
1.7888584872878843e-05 0.0008335963107567834
2.9399764072012604e-09 0.0007724949215730334
2.7353537013202273e-06 0.0007041536147174017
7.6085776901766644e-06 0.0006721968858321584
-4.519643164275514e-16 0.014973736461407787
7.958388396652038e-06 0.0006649177212025457
3.2779248697488885e-05 0.0006554467695184987