# vtk DataFile Version 3.0
Some data
ASCII
DATASET UNSTRUCTURED_GRID
POINTS 7930 float
0.0 0.0 0.0
0.0 10.0 0.0
10.0 10.0 0.0
10.0 0.0 0.0
0.5 0.0 0.0
0.0009999999999981016 0.0 0.0
0.001999999999996203 0.0 0.0
0.002999999999994305 0.0 0.0
0.003999999999992409 0.0 0.0
0.004999999999990531 0.0 0.0
0.005999999999988653 0.0 0.0
0.006999999999986775 0.0 0.0
0.007999999999984898 0.0 0.0
0.008999999999983018 0.0 0.0
0.009999999999981142 0.0 0.0
0.01099999999997926 0.0 0.0
0.01199999999997736 0.0 0.0
0.0129999999999754 0.0 0.0
0.01399999999997343 0.0 0.0
0.01499999999997147 0.0 0.0
0.01599999999996944 0.0 0.0
0.0169999999999673 0.0 0.0
0.01799999999996516 0.0 0.0
0.01899999999996302 0.0 0.0
0.01999999999996084 0.0 0.0
0.02099999999995862 0.0 0.0
0.02199999999995639 0.0 0.0
0.02299999999995417 0.0 0.0
0.02399999999995195 0.0 0.0
0.02499999999994972 0.0 0.0
0.0259999999999475 0.0 0.0
0.02699999999994527 0.0 0.0
0.02799999999994315 0.0 0.0
0.0289999999999411 0.0 0.0
0.02999999999993905 0.0 0.0
0.030999999999937 0.0 0.0
0.03199999999993521 0.0 0.0
0.0329999999999335 0.0 0.0
0.0339999999999318 0.0 0.0
0.03499999999993009 0.0 0.0
0.03599999999992853 0.0 0.0
0.036999999999927 0.0 0.0
0.03799999999992547 0.0 0.0
0.03899999999992394 0.0 0.0
0.03999999999992241 0.0 0.0
0.04099999999992088 0.0 0.0
0.04199999999991934 0.0 0.0
0.04299999999991782 0.0 0.0
0.04399999999991629 0.0 0.0
0.04499999999991475 0.0 0.0
0.04599999999991322 0.0 0.0
0.0469999999999117 0.0 0.0
0.04799999999991016 0.0 0.0
0.04899999999990863 0.0 0.0
0.0499999999999071 0.0 0.0
0.05099999999990557 0.0 0.0
0.05199999999990404 0.0 0.0
0.05299999999990251 0.0 0.0
0.05399999999990097 0.0 0.0
0.05499999999989943 0.0 0.0
0.05599999999989791 0.0 0.0
0.05699999999989638 0.0 0.0
0.05799999999989484 0.0 0.0
0.05899999999989317 0.0 0.0
0.05999999999989129 0.0 0.0
0.06099999999988941 0.0 0.0
0.06199999999988753 0.0 0.0
0.06299999999988531 0.0 0.0
0.06399999999988273 0.0 0.0
0.06499999999988015 0.0 0.0
0.06599999999987759 0.0 0.0
0.0669999999998748 0.0 0.0
0.06799999999987189 0.0 0.0
0.06899999999986897 0.0 0.0
0.06999999999986604 0.0 0.0
0.07099999999986313 0.0 0.0
0.0719999999998602 0.0 0.0
0.07299999999985729 0.0 0.0
0.07399999999985438 0.0 0.0
0.07499999999985145 0.0 0.0
0.07599999999984854 0.0 0.0
0.07699999999984562 0.0 0.0
0.0779999999998427 0.0 0.0
0.07899999999983978 0.0 0.0
0.07999999999983685 0.0 0.0
0.08099999999983394 0.0 0.0
0.08199999999983103 0.0 0.0
0.0829999999998281 0.0 0.0
0.08399999999982519 0.0 0.0
0.08499999999982226 0.0 0.0
0.08599999999981935 0.0 0.0
0.08699999999981643 0.0 0.0
0.0879999999998135 0.0 0.0
0.08899999999981059 0.0 0.0
0.08999999999980766 0.0 0.0
0.09099999999980475 0.0 0.0
0.09199999999980184 0.0 0.0
0.09299999999979891 0.0 0.0
0.093999999999796 0.0 0.0
0.09499999999979307 0.0 0.0
0.09599999999979016 0.0 0.0
0.09699999999978724 0.0 0.0
0.09799999999978432 0.0 0.0
0.0989999999997814 0.0 0.0
0.09999999999977847 0.0 0.0
0.1009999999997756 0.0 0.0
0.1019999999997726 0.0 0.0
0.1029999999997697 0.0 0.0
0.1039999999997668 0.0 0.0
0.1049999999997639 0.0 0.0
0.105999999999761 0.0 0.0
0.106999999999758 0.0 0.0
0.1079999999997551 0.0 0.0
0.1089999999997522 0.0 0.0
0.1099999999997493 0.0 0.0
0.1109999999997464 0.0 0.0
0.1119999999997434 0.0 0.0
0.1129999999997405 0.0 0.0
0.1139999999997376 0.0 0.0
0.1149999999997347 0.0 0.0
0.1159999999997318 0.0 0.0
0.1169999999997288 0.0 0.0
0.1179999999997259 0.0 0.0
0.118999999999723 0.0 0.0
0.1199999999997201 0.0 0.0
0.1209999999997172 0.0 0.0
0.1219999999997143 0.0 0.0
0.1229999999997113 0.0 0.0
0.1239999999997084 0.0 0.0
0.1249999999997055 0.0 0.0
0.1259999999997026 0.0 0.0
0.1269999999996997 0.0 0.0
0.1279999999996967 0.0 0.0
0.1289999999996938 0.0 0.0
0.1299999999996909 0.0 0.0
0.130999999999688 0.0 0.0
0.1319999999996851 0.0 0.0
0.1329999999996822 0.0 0.0
0.1339999999996792 0.0 0.0
0.1349999999996764 0.0 0.0
0.1359999999996734 0.0 0.0
0.1369999999996705 0.0 0.0
0.1379999999996676 0.0 0.0
0.1389999999996647 0.0 0.0
0.1399999999996618 0.0 0.0
0.1409999999996588 0.0 0.0
0.1419999999996559 0.0 0.0
0.142999999999653 0.0 0.0
0.1439999999996501 0.0 0.0
0.1449999999996472 0.0 0.0
0.1459999999996442 0.0 0.0
0.1469999999996414 0.0 0.0
0.1479999999996384 0.0 0.0
0.1489999999996355 0.0 0.0
0.1499999999996326 0.0 0.0
0.1509999999996297 0.0 0.0
0.1519999999996268 0.0 0.0
0.1529999999996239 0.0 0.0
0.1539999999996209 0.0 0.0
0.154999999999618 0.0 0.0
0.1559999999996151 0.0 0.0
0.1569999999996122 0.0 0.0
0.1579999999996093 0.0 0.0
0.1589999999996064 0.0 0.0
0.1599999999996035 0.0 0.0
0.1609999999996005 0.0 0.0
0.1619999999995976 0.0 0.0
0.1629999999995947 0.0 0.0
0.1639999999995918 0.0 0.0
0.1649999999995889 0.0 0.0
0.165999999999586 0.0 0.0
0.1669999999995831 0.0 0.0
0.1679999999995801 0.0 0.0
0.1689999999995772 0.0 0.0
0.1699999999995743 0.0 0.0
0.1709999999995714 0.0 0.0
0.1719999999995685 0.0 0.0
0.1729999999995655 0.0 0.0
0.1739999999995626 0.0 0.0
0.1749999999995597 0.0 0.0
0.1759999999995568 0.0 0.0
0.1769999999995539 0.0 0.0
0.177999999999551 0.0 0.0
0.178999999999548 0.0 0.0
0.1799999999995451 0.0 0.0
0.1809999999995422 0.0 0.0
0.1819999999995393 0.0 0.0
0.1829999999995364 0.0 0.0
0.1839999999995335 0.0 0.0
0.1849999999995305 0.0 0.0
0.1859999999995277 0.0 0.0
0.1869999999995247 0.0 0.0
0.1879999999995218 0.0 0.0
0.1889999999995189 0.0 0.0
0.189999999999516 0.0 0.0
0.1909999999995131 0.0 0.0
0.1919999999995101 0.0 0.0
0.1929999999995072 0.0 0.0
0.1939999999995043 0.0 0.0
0.1949999999995014 0.0 0.0
0.1959999999994985 0.0 0.0
0.1969999999994956 0.0 0.0
0.1979999999994927 0.0 0.0
0.1989999999994897 0.0 0.0
0.1999999999994868 0.0 0.0
0.2009999999994839 0.0 0.0
0.201999999999481 0.0 0.0
0.2029999999994781 0.0 0.0
0.2039999999994752 0.0 0.0
0.2049999999994722 0.0 0.0
0.2059999999994693 0.0 0.0
0.2069999999994664 0.0 0.0
0.2079999999994635 0.0 0.0
0.2089999999994606 0.0 0.0
0.2099999999994577 0.0 0.0
0.2109999999994548 0.0 0.0
0.2119999999994518 0.0 0.0
0.2129999999994489 0.0 0.0
0.213999999999446 0.0 0.0
0.2149999999994431 0.0 0.0
0.2159999999994402 0.0 0.0
0.2169999999994373 0.0 0.0
0.2179999999994343 0.0 0.0
0.2189999999994314 0.0 0.0
0.2199999999994285 0.0 0.0
0.2209999999994256 0.0 0.0
0.2219999999994227 0.0 0.0
0.2229999999994198 0.0 0.0
0.2239999999994168 0.0 0.0
0.2249999999994139 0.0 0.0
0.225999999999411 0.0 0.0
0.2269999999994081 0.0 0.0
0.2279999999994052 0.0 0.0
0.2289999999994023 0.0 0.0
0.2299999999993994 0.0 0.0
0.2309999999993964 0.0 0.0
0.2319999999993935 0.0 0.0
0.2329999999993906 0.0 0.0
0.2339999999993877 0.0 0.0
0.2349999999993848 0.0 0.0
0.2359999999993818 0.0 0.0
0.236999999999379 0.0 0.0
0.237999999999376 0.0 0.0
0.2389999999993731 0.0 0.0
0.2399999999993702 0.0 0.0
0.2409999999993673 0.0 0.0
0.2419999999993644 0.0 0.0
0.2429999999993615 0.0 0.0
0.2439999999993585 0.0 0.0
0.2449999999993556 0.0 0.0
0.2459999999993527 0.0 0.0
0.246999999999351 0.0 0.0
0.2479999999993495 0.0 0.0
0.248999999999348 0.0 0.0
0.2499999999993464 0.0 0.0
0.2509999999993477 0.0 0.0
0.2519999999993489 0.0 0.0
0.2529999999993502 0.0 0.0
0.2539999999993516 0.0 0.0
0.2549999999993542 0.0 0.0
0.2559999999993569 0.0 0.0
0.2569999999993595 0.0 0.0
0.2579999999993621 0.0 0.0
0.2589999999993647 0.0 0.0
0.2599999999993673 0.0 0.0
0.26099999999937 0.0 0.0
0.2619999999993726 0.0 0.0
0.2629999999993753 0.0 0.0
0.2639999999993779 0.0 0.0
0.2649999999993806 0.0 0.0
0.2659999999993832 0.0 0.0
0.2669999999993858 0.0 0.0
0.2679999999993884 0.0 0.0
0.2689999999993911 0.0 0.0
0.2699999999993937 0.0 0.0
0.2709999999993963 0.0 0.0
0.271999999999399 0.0 0.0
0.2729999999994017 0.0 0.0
0.2739999999994043 0.0 0.0
0.2749999999994069 0.0 0.0
0.2759999999994096 0.0 0.0
0.2769999999994122 0.0 0.0
0.2779999999994148 0.0 0.0
0.2789999999994174 0.0 0.0
0.2799999999994201 0.0 0.0
0.2809999999994228 0.0 0.0
0.2819999999994254 0.0 0.0
0.282999999999428 0.0 0.0
0.2839999999994306 0.0 0.0
0.2849999999994333 0.0 0.0
0.2859999999994359 0.0 0.0
0.2869999999994385 0.0 0.0
0.2879999999994411 0.0 0.0
0.2889999999994439 0.0 0.0
0.2899999999994465 0.0 0.0
0.2909999999994491 0.0 0.0
0.2919999999994517 0.0 0.0
0.2929999999994544 0.0 0.0
0.293999999999457 0.0 0.0
0.2949999999994596 0.0 0.0
0.2959999999994622 0.0 0.0
0.2969999999994649 0.0 0.0
0.2979999999994676 0.0 0.0
0.2989999999994702 0.0 0.0
0.2999999999994728 0.0 0.0
0.3009999999994754 0.0 0.0
0.3019999999994781 0.0 0.0
0.3029999999994807 0.0 0.0
0.3039999999994834 0.0 0.0
0.304999999999486 0.0 0.0
0.3059999999994886 0.0 0.0
0.3069999999994913 0.0 0.0
0.3079999999994939 0.0 0.0
0.3089999999994965 0.0 0.0
0.3099999999994992 0.0 0.0
0.3109999999995018 0.0 0.0
0.3119999999995045 0.0 0.0
0.3129999999995071 0.0 0.0
0.3139999999995097 0.0 0.0
0.3149999999995123 0.0 0.0
0.315999999999515 0.0 0.0
0.3169999999995176 0.0 0.0
0.3179999999995203 0.0 0.0
0.3189999999995229 0.0 0.0
0.3199999999995256 0.0 0.0
0.3209999999995282 0.0 0.0
0.3219999999995308 0.0 0.0
0.3229999999995334 0.0 0.0
0.323999999999536 0.0 0.0
0.3249999999995387 0.0 0.0
0.3259999999995414 0.0 0.0
0.326999999999544 0.0 0.0
0.3279999999995466 0.0 0.0
0.3289999999995493 0.0 0.0
0.3299999999995519 0.0 0.0
0.3309999999995545 0.0 0.0
0.3319999999995571 0.0 0.0
0.3329999999995598 0.0 0.0
0.3339999999995625 0.0 0.0
0.3349999999995651 0.0 0.0
0.3359999999995677 0.0 0.0
0.3369999999995703 0.0 0.0
0.337999999999573 0.0 0.0
0.3389999999995756 0.0 0.0
0.3399999999995783 0.0 0.0
0.3409999999995809 0.0 0.0
0.3419999999995835 0.0 0.0
0.3429999999995862 0.0 0.0
0.3439999999995888 0.0 0.0
0.3449999999995914 0.0 0.0
0.345999999999594 0.0 0.0
0.3469999999995967 0.0 0.0
0.3479999999995994 0.0 0.0
0.348999999999602 0.0 0.0
0.3499999999996046 0.0 0.0
0.3509999999996072 0.0 0.0
0.3519999999996099 0.0 0.0
0.3529999999996125 0.0 0.0
0.3539999999996151 0.0 0.0
0.3549999999996178 0.0 0.0
0.3559999999996205 0.0 0.0
0.3569999999996231 0.0 0.0
0.3579999999996257 0.0 0.0
0.3589999999996283 0.0 0.0
0.359999999999631 0.0 0.0
0.3609999999996336 0.0 0.0
0.3619999999996362 0.0 0.0
[...]
POINT_DATA 7930
SCALARS Disp float 2
LOOKUP_TABLE default
0.0 0.0018854231393979411
0.0 0.1
0.0 0.1
0.0 0.0
7.250456876805201e-06 0.0
-6.733104425626381e-06 0.0018853027044491
-1.3508220827126269e-05 0.0018851601068906806
-2.0284531623441203e-05 0.001884568244178639
-2.698810876589411e-05 0.0018835612224407734
-3.375547169612502e-05 0.0018828708365306154
-4.080361411994786e-05 0.0018822115619545063
-4.764981661043104e-05 0.0018801295756219211
-5.41232552726006e-05 0.0018777224438621461
-6.0992726484575034e-05 0.0018765997263167251
-6.834802614798547e-05 0.0018756019455584553
-7.55309531314969e-05 0.0018720266999094112
-8.173696300694947e-05 0.001867888380610623
-8.814278921515637e-05 0.0018657960777941195
-9.549253689115312e-05 0.0018642453744741724
-0.0001028426381098329 0.0018601495757502185
-0.00010911497744202333 0.0018547130654039212
-0.00011537206761484664 0.0018514715899910826
-0.00012282058948814937 0.0018490736667737594
-0.00013035085184803007 0.0018439161758193332
-0.0001364793801170707 0.0018369415524595379
-0.0001426234859446266 0.0018330695274519843
-0.00015015664328925493 0.0018301868416014124
-0.00015780692768098482 0.0018239394289691938
-0.00016402399184201443 0.0018155773647639862
-0.00016988862101130023 0.0018101749873145822
-0.0001773066425793538 0.0018067400681895985
-0.00018474150124816996 0.00179963717834145
-0.00019105429777428745 0.0017902734718616509
-0.00019707831233607153 0.0017836660018670663
-0.00020450929849992418 0.0017791994453716124
-0.00021222454884648332 0.0017715207528701373
-0.0002188695149924208 0.0017606614303939784
-0.00022482218178434995 0.001752447010039727
-0.00023200663313841625 0.0017470947329800077
-0.00023974096259745553 0.0017380846730764648
-0.0002462757484012273 0.0017257000636634468
-0.0002520679142884669 0.0017162002192697512
-0.00025925829919381556 0.0017099702984869221
-0.00026712026174351367 0.0017002156738315482
-0.00027371487368096686 0.001686316422146384
-0.00027942891171485993 0.001675347235418576
-0.000286528432249887 0.0016681209127002365
-0.0002944506483740635 0.001657037366812139
-0.0003012353328218696 0.0016414986679389825
-0.00030675420497227365 0.0016285828549899308
-0.0003135933114239626 0.0016201207850165995
-0.00032182990167590173 0.0016085657005621818
-0.00032857289516153307 0.001591538372226762
-0.00033415104662231216 0.0015770194828996593
-0.00034095597001028986 0.001567005725356522
-0.0003493426991108271 0.0015539240537989427
-0.0003562637368445265 0.0015351094497169945
-0.0003616589345276783 0.0015180189464378162
-0.0003681515777364631 0.001506563600829297
-0.00037655743796062053 0.0014920094732646366
-0.0003837111096836233 0.0014711565820039719
-0.0003890546173003834 0.0014519552576512402
-0.0003951840099314182 0.0014383599537557364
-0.0004034880187630443 0.0014225108631843626
-0.0004106318302607869 0.0014001306833955692
-0.00041623674242441237 0.0013785409837621856
-0.0004226822498675734 0.00136252814425695
-0.0004309013170863259 0.0013443523944209408
-0.0004381955520535358 0.0013193124248712218
-0.00044360320921188283 0.0012948158534088767
-0.00044970559634633034 0.0012761487015164163
-0.00045782526303708406 0.0012557751476110588
-0.0004653154684729835 0.0012279715530702467
-0.00047089591791057165 0.001199945379087832
-0.00047689609669537174 0.0011778393306404946
-0.0004849529247087906 0.0011543412019943825
-0.0004923531916524632 0.001122895510663605
-0.0004979986602716003 0.001090594966079158
-0.0005036875893209816 0.0010639411107388377
-0.0005118509308169587 0.0010361460848625852
-0.0005194954986790782 0.0009998563537820403
-0.0005249670273638322 0.0009616108365451393
-0.0005306282849330635 0.0009292444061250963
-0.0005390174277831444 0.0008953931378495629
-0.0005470887567485124 0.0008517177766404773
-0.000552883698641787 0.0008047838895380401
-0.000558222160545756 0.0007619157300379902
-0.000566745036417917 0.0007163338825088227
-0.0005748461061409136 0.0006592593078749625
-0.0005800513169586179 0.000595036991445138
-0.0005850348737521416 0.0005311445477595893
-0.0005906631527996356 0.0004596232586514972
-0.0005966707388950572 0.0003634301224887699
-0.0005916158135474014 0.00023032618707217472
-0.0005621187836132314 0.0
-0.0005157067562900511 0.0
-0.0004828262480834858 0.0
-0.0004598343127260544 0.0
-0.00044052688914530003 0.0
-0.00042468895257047 0.0
-0.0004108162038406119 0.0
-0.000398030840257631 0.0
-0.0003866066417575697 0.0
-0.0003760320999730003 0.0
-0.00036632373361017385 0.0
-0.00035731205797181944 0.0
-0.0003489284691721975 0.0
-0.0003410722798713686 0.0
-0.0003336891592600654 0.0
-0.00032669860754741466 0.0
-0.0003199831324410424 0.0
-0.0003136468385081221 0.0
-0.00030770426158776757 0.0
-0.0003018411876883662 0.0
-0.0002963033595219401 0.0
-0.00029100998832067064 0.0
-0.0002858901019507488 0.0
-0.0002809722175192045 0.0
-0.00027623535477258886 0.0
-0.0002716387902194238 0.0
-0.00026720302629603635 0.0
-0.00026292377323999436 0.0
-0.0002587833119803905 0.0
-0.00025480780545431584 0.0
-0.00025086269223403883 0.0
-0.00024708938743017955 0.0
-0.00024340638170161145 0.0
-0.0002398461819257044 0.0
-0.00023635365285531562 0.0
-0.00023297331354445318 0.0
-0.00022967927819311115 0.0
-0.00022646930989740586 0.0
-0.00022333943380976366 0.0
-0.00022029094453341512 0.0
-0.00021731739840172493 0.0
-0.00021441268396787613 0.0
-0.00021157265227771818 0.0
-0.00020880697440126003 0.0
-0.0002061148971405415 0.0
-0.00020344894373265743 0.0
-0.00020085801761176214 0.0
-0.00019831236956982545 0.0
-0.00019582066990382288 0.0
-0.00019337575703525707 0.0
-0.00019097877731394413 0.0
-0.00018863159020238805 0.0
-0.00018633184832360863 0.0
-0.0001840772736690057 0.0
-0.00018186150119549059 0.0
-0.00017969103667695102 0.0
-0.0001775639297106744 0.0
-0.00017547576118636383 0.0
-0.00017342938331109877 0.0
-0.00017142093422606495 0.0
-0.00016944678876263492 0.0
-0.00016750821835589928 0.0
-0.00016560413071738608 0.0
-0.00016373012097686045 0.0
-0.0001618857886060029 0.0
-0.00016007388407203403 0.0
-0.00015829571999853375 0.0
-0.000156531097804138 0.0
-0.00015480681949461966 0.0
-0.00015310386199363847 0.0
-0.00015142595494317573 0.0
-0.0001497778665669159 0.0
-0.00014813884098287516 0.0
-0.00014653589703564947 0.0
-0.00014495491750295508 0.0
-0.00014339597885572292 0.0
-0.00014186126912554153 0.0
-0.00014034911084780805 0.0
-0.00013885868480871126 0.0
-0.00013738921218376076 0.0
-0.00013594168154615815 0.0
-0.0001345145353126357 0.0
-0.0001331057414326715 0.0
-0.00013171893097905176 0.0
-0.0001303533410898022 0.0
-0.00012900536013877654 0.0
-0.0001276747610482095 0.0
-0.00012636293504043644 0.0
-0.00012506977313723956 0.0
-0.00012379056606144428 0.0
-0.0001225274727322 0.0
-0.0001212813153101848 0.0
-0.00012004927681151848 0.0
-0.00011883134284361954 0.0
-0.00011762824159402436 0.0
-0.0001164410379251162 0.0
-0.00011526635218550113 0.0
-0.00011410594034041002 0.0
-0.00011295940723894255 0.0
-0.00011182627303079803 0.0
-0.00011070745907743783 0.0
-0.00010960316089721676 0.0
-0.00010851111728425026 0.0
-0.00010743241971328839 0.0
-0.00010636612676087242 0.0
-0.00010531270123687244 0.0
-0.00010427310376231503 0.0
-0.00010324492696659624 0.0
-0.00010222762505169337 0.0
-0.00010122303237160938 0.0
-0.00010022832675016518 0.0
-9.924451858748799e-05 0.0
-9.82720535717214e-05 0.0
-9.730975142631353e-05 0.0
-9.635665759817289e-05 0.0
-9.541517363749424e-05 0.0
-9.447964053434798e-05 0.0
-9.355350089065013e-05 0.0
-9.263654949773739e-05 0.0
-9.172954457945774e-05 0.0
-9.08307883100422e-05 0.0
-8.99407639932862e-05 0.0
-8.905977099241094e-05 0.0
-8.818673673149348e-05 0.0
-8.732220010390303e-05 0.0
-8.646916532021821e-05 0.0
-8.561992595092159e-05 0.0
-8.478136515838788e-05 0.0
-8.395190642163984e-05 0.0
-8.31298117805553e-05 0.0
-8.23162565566057e-05 0.0
-8.151125199621563e-05 0.0
-8.071429819071405e-05 0.0
-7.992510946386129e-05 0.0
-7.914408230549352e-05 0.0
-7.837096818283224e-05 0.0
-7.760521961456827e-05 0.0
-7.68475340319256e-05 0.0
-7.609701971471836e-05 0.0
-7.535363154956283e-05 0.0
-7.461774775623036e-05 0.0
-7.388825565602102e-05 0.0
-7.316497352440689e-05 0.0
-7.244874204735372e-05 0.0
-7.173912770143349e-05 0.0
-7.103507916384558e-05 0.0
-7.033802196520257e-05 0.0
-6.96467253541593e-05 0.0
-6.896177967641748e-05 0.0
-6.828278218061228e-05 0.0
-6.760942493341161e-05 0.0
-6.694156251639922e-05 0.0
-6.627921436465747e-05 0.0
-6.5622630698347e-05 0.0
-6.49710403386082e-05 0.0
-6.432495064098331e-05 0.0
-6.368498417163744e-05 0.0
-6.304952277876959e-05 0.0
-6.241921577216394e-05 0.0
-6.179471902004611e-05 0.0
-6.11752360185976e-05 0.0
-6.056096431201183e-05 0.0
-5.995180480666889e-05 0.0
-5.9347355939325e-05 0.0
-5.874804372803259e-05 0.0
-5.8154132645180185e-05 0.0
-5.7564871261654355e-05 0.0
-5.69806404419874e-05 0.0
-5.6401339728147304e-05 0.0
-5.5827136712602955e-05 0.0
-5.525798195573461e-05 0.0
-5.46937662676571e-05 0.0
-5.413427884643099e-05 0.0
-5.357942568367388e-05 0.0
-5.3029507284499716e-05 0.0
-5.248412503218771e-05 0.0
-5.194359424073636e-05 0.0
-5.140780687517221e-05 0.0
-5.0876547943404e-05 0.0
-5.034845035152984e-05 0.0
-4.982648279360069e-05 0.0
-4.930718771244988e-05 0.0
-4.8793443360709316e-05 0.0
-4.828218665411892e-05 0.0
-4.777511200230968e-05 0.0
-4.727184650108763e-05 0.0
-4.6772359625857494e-05 0.0
-4.62764794016234e-05 0.0
-4.57839200577572e-05 0.0
-4.52948210686789e-05 0.0
-4.480914688916192e-05 0.0
-4.432658160940975e-05 0.0
-4.384698280436419e-05 0.0
-4.337062268944839e-05 0.0
-4.289739204299255e-05 0.0
-4.242703693458194e-05 0.0
-4.195977131310727e-05 0.0
-4.149570162323183e-05 0.0
-4.1034833207486025e-05 0.0
-4.05772552994404e-05 0.0
-4.012125556273077e-05 0.0
-3.9669541110567347e-05 0.0
-3.922099015010716e-05 0.0
-3.87756938322787e-05 0.0
-3.833451481232945e-05 0.0
-3.78953932432519e-05 0.0
-3.745993277356081e-05 0.0
-3.702810598172652e-05 0.0
-3.659989851086478e-05 0.0
-3.6175007764320706e-05 0.0
-3.5753609349145165e-05 0.0
-3.533558453311229e-05 0.0
-3.492118993704359e-05 0.0
-3.451018040852064e-05 0.0
-3.410254906745496e-05 0.0
-3.369835632354972e-05 0.0
-3.329758111461788e-05 0.0
-3.290015867949092e-05 0.0
-3.250467826796221e-05 0.0
-3.2112904668770316e-05 0.0
-3.172422385429911e-05 0.0
-3.133854059089657e-05 0.0
-3.095630470742893e-05 0.0
-3.057539738526474e-05 0.0
-3.0197255333029485e-05 0.0
-2.9821781672181553e-05 0.0
-2.944881283418615e-05 0.0
-2.9078147173632844e-05 0.0
-2.871013099854012e-05 0.0
-2.8344307197405584e-05 0.0
-2.7980763384901587e-05 0.0
-2.7619344954109725e-05 0.0
-2.726014468718348e-05 0.0
-2.6903162233672524e-05 0.0
-2.654821353802703e-05 0.0
-2.619555898528347e-05 0.0
-2.584540142015952e-05 0.0
-2.5497266800377628e-05 0.0
-2.5151367554166953e-05 0.0
-2.4807995315627068e-05 0.0
-2.4467022434527273e-05 0.0
-2.4128346583203563e-05 0.0
-2.379223664341825e-05 0.0
-2.3458515656636228e-05 0.0
-2.3127458652546573e-05 0.0
-2.2798943012828897e-05 0.0
-2.2472956885072027e-05 0.0
-2.2149488940019424e-05 0.0
-2.182860590759896e-05 0.0
-2.1510487320363664e-05 0.0
-2.1195002274856213e-05 0.0
-2.0882042309330123e-05 0.0
-2.0571564111732936e-05 0.0
-2.0263682723757644e-05 0.0
-1.9958320878842297e-05 0.0
-1.9655343430846506e-05 0.0
-1.9354816248738083e-05 0.0
-1.9056696904612237e-05 0.0
-1.876083965711164e-05 0.0
-1.8467073497370866e-05 0.0
-1.8175515069647328e-05 0.0
-1.788608857533429e-05 0.0
-1.759849758230148e-05 0.0
-1.7312963108736103e-05 0.0
-1.7029214815631425e-05 0.0
-1.6747225828381993e-05 0.0
-1.646698900256749e-05 0.0
-1.6188434863264344e-05 0.0
-1.591157599560304e-05 0.0
-1.563627900092227e-05 0.0
-1.536250765693077e-05 0.0
-1.5090327543802195e-05 0.0
-1.4819678930337321e-05 0.0
-1.4550592465475864e-05 0.0
-1.4283051012380565e-05 0.0
-1.4017035392916015e-05 0.0
-1.3752549106575844e-05 0.0
-1.3489681639231706e-05 0.0
-1.3228463619373192e-05 0.0
-1.2968946268033857e-05 0.0
-1.271048411040938e-05 0.0
-1.245405231860491e-05 0.0
-1.219939268533467e-05 0.0
-1.1946479365303671e-05 0.0
-1.169536112338342e-05 0.0
-1.1446087804688273e-05 0.0
-1.119866556141809e-05 0.0
-1.0953094884782113e-05 0.0
-1.0709483722466007e-05 0.0
-1.0467675211297805e-05 0.0
-1.0227872417119406e-05 0.0
-9.990142322403682e-06 0.0
-9.754327013554109e-06 0.0
-9.52044534325512e-06 0.0
-9.288692658212975e-06 0.0
-9.0588158406553e-06 0.0
-8.830898719925006e-06 0.0
-8.604894376310485e-06 0.0
-8.38084391805618e-06 0.0
-8.158605554889543e-06 0.0
-7.938283415585887e-06 0.0
-7.719891975014351e-06 0.0
-7.503185738481303e-06 0.0
-7.288247938254248e-06 0.0
-7.075058145177594e-06 0.0
-6.863498501583179e-06 0.0
-6.653640666260131e-06 0.0
-6.4454086094715334e-06 0.0
-6.238717407939909e-06 0.0
-6.033539752758889e-06 0.0
-5.82998846774938e-06 0.0
-5.627833068371141e-06 0.0
-5.427101254742726e-06 0.0
-5.227839946338683e-06 0.0
-5.030036801078583e-06 0.0
-4.833567613211175e-06 0.0
-4.638446182988041e-06 0.0
-4.444702841204301e-06 0.0
-4.252359264738633e-06 0.0
-4.061292008218068e-06 0.0
-3.871568754390501e-06 0.0
-3.683115360786727e-06 0.0
-3.495936643149434e-06 0.0
-3.310195941166521e-06 0.0
-3.1258744873742093e-06 0.0
-2.9428761272853698e-06 0.0
-2.7612943394327636e-06 0.0
-2.5811008829812442e-06 0.0
-2.402260767535647e-06 0.0
-2.2248425693923313e-06 0.0
-2.048769380222519e-06 0.0
-1.8741566964994018e-06 0.0
-1.701022791553722e-06 0.0
-1.5292994276813508e-06 0.0
-1.358958941591126e-06 0.0
-1.1901360366851075e-06 0.0
-1.0228023986264255e-06 0.0
-8.568888276701863e-07 0.0
-6.924041367060821e-07 0.0
-5.293164353018571e-07 0.0
-3.6768948390225654e-07 0.0
-2.074971716643371e-07 0.0
-4.865496077203251e-08 0.0
1.087839548106057e-07 0.0
2.647171309740638e-07 0.0
4.1946954452710693e-07 0.0
5.728070916051899e-07 0.0
7.247926658071946e-07 0.0
8.754160178915803e-07 0.0
1.0247722800444001e-06 0.0
1.1729417061890642e-06 0.0
1.3197689515532101e-06 0.0
1.4653148827770451e-06 0.0
1.6095713714136274e-06 0.0
1.752545419843973e-06 0.0
1.8944441193859938e-06 0.0
2.035130901365581e-06 0.0
2.1745367128910934e-06 0.0
2.3127366020817394e-06 0.0
2.449773462489944e-06 0.0
2.5855177760317482e-06 0.0
2.7200551778890665e-06 0.0
2.8534037551361917e-06 0.0
2.985493785615899e-06 0.0
3.1163248607578998e-06 0.0
3.245840834166195e-06 0.0
3.3739437203314353e-06 0.0
3.500725594562046e-06 0.0
3.626177014763123e-06 0.0
3.750141135181665e-06 0.0
3.872622976020064e-06 0.0
3.993486377123491e-06 0.0
4.112814297841824e-06 0.0
4.230588721894815e-06 0.0
4.3468456286908405e-06 0.0
4.461340044911625e-06 0.0
4.573911180600017e-06 0.0
4.684690112104521e-06 0.0
4.793836432045911e-06 0.0
4.9010927121114325e-06 0.0
5.006520069103868e-06 0.0
5.109999412082406e-06 0.0
5.211548425433286e-06 0.0
5.3110476139170795e-06 0.0
5.408500292002145e-06 0.0
5.5040227505567225e-06 0.0
5.59735332590307e-06 0.0
5.6885953948944745e-06 0.0
5.777695491109189e-06 0.0
5.864776821544973e-06 0.0
5.949823317156632e-06 0.0
6.032814679066323e-06 0.0
6.113678493360449e-06 0.0
6.192356014691507e-06 0.0
6.269237199973792e-06 0.0
6.344025413204767e-06 0.0
6.416799330459588e-06 0.0
6.487656223841024e-06 0.0
6.5564175394173185e-06 0.0
6.623520313411285e-06 0.0
6.688813400070274e-06 0.0
6.752263589124229e-06 0.0
6.813929905200737e-06 0.0
6.87402770884286e-06 0.0
6.932404570405508e-06 0.0
6.9891589781203795e-06 0.0
7.044277713920549e-06 0.0
7.097943616842319e-06 0.0
7.15029725723013e-06 0.0
7.20106011622578e-06 0.0
7.300294909814737e-06 0.0
7.352890414073548e-06 0.0
7.4083725758282214e-06 0.0
7.466732248872213e-06 0.0
7.52791827799269e-06 0.0
7.5919511635960565e-06 0.0
7.658718313216693e-06 0.0
7.727983928222305e-06 0.0
7.799561018377287e-06 0.0
7.873039750573717e-06 0.0
7.947794663051764e-06 0.0
8.023326363967717e-06 0.0
8.097941406922085e-06 0.0
8.170767273429745e-06 0.0
8.239303730811613e-06 0.0
8.300237855377931e-06 0.0
8.349040828485476e-06 0.0
8.382812819780931e-06 0.0
8.394930494530535e-06 0.0
8.383741953470926e-06 0.0
8.34472841695608e-06 0.0
8.275788460165184e-06 0.0
8.175560148330598e-06 0.0
8.051160076211385e-06 0.0
7.899425443258873e-06 0.0
7.71979586767914e-06 0.0
7.498166719293767e-06 0.0
7.21599449324289e-06 0.0
6.855828763112461e-06 0.0
6.410737587911328e-06 0.0
5.896652727987614e-06 0.0
5.342036699854957e-06 0.0
4.76441914229792e-06 0.0
4.15243746968681e-06 0.0
3.4631429304681932e-06 0.0
2.6691808280098414e-06 0.0
1.8196361368039102e-06 0.0
1.0455890602232378e-06 0.0
4.919608450978461e-07 0.0
1.7997165288345364e-07 0.0
4.732448111259209e-08 0.0
7.573128537621134e-09 0.0
9.265801860518831e-10 0.0
1.577391952352704e-11 0.0
-1.1838373645231487e-12 0.0
2.5070983438758947e-13 0.0
-2.9058970166494698e-15 0.0
-1.067116649725125e-14 0.0
-1.7775208694549084e-14 0.0
-2.4647978893279317e-15 0.0
-2.3738119808864146e-16 0.0
-1.5221401021024183e-15 0.0
-8.151358848266815e-16 0.0
-9.247242988587953e-16 0.0
-2.283069327127702e-16 0.0
2.2684707730916442e-17 0.0
-1.6357519852029839e-16 0.0
-2.35101783862254e-16 0.0
1.6288319771664542e-16 0.0
5.029652016607933e-16 0.0
1.8298254770139786e-17 0.0
1.6224072316248735e-16 0.0
7.366219110057165e-16 0.0
-8.903246770179084e-17 0.0
-2.30176133105874e-16 0.0
-5.69711840769249e-16 0.0
-3.493539718295902e-16 0.0
3.177461952107677e-16 0.0
-7.189357566179592e-17 0.0
-3.623412350512966e-16 0.0
5.639538885282053e-16 0.0
8.336324369044066e-16 0.0
-1.8286057653819044e-15 0.0
5.380335053704962e-16 0.0
2.0434812223493146e-15 0.0
-1.8461685892580196e-15 0.0
1.3943332517609153e-17 0.0
9.709382361995106e-16 0.0
-1.4729054639180884e-15 0.0
0.0 0.00923416528725997
0.0 0.02210978593046204
0.0 0.040062852071458356
0.0 0.0650956392631097
-2.0494969400432564e-15 0.1
-2.8918096168621993e-15 0.1
3.2906431028663464e-14 0.1
-3.447195506294779e-14 0.1
0.0 0.09234095951659178
0.0 0.08526779443703553
0.0 0.07873568783499009
0.0 0.07270325358165602
0.0 0.0671322687899187
0.0 0.06198743331092152
0.0 0.057236152337958104
0.0 0.052848316929522986
0.0 0.04879612844994417
0.0 0.04505391065785047
0.0 0.04159795282712256
0.0 0.03840635724257302
0.0 0.035458901718227784
0.0 0.032736910873334794
0.0 0.030223137736034567
0.0 0.027901654838208126
0.0 0.025757753001963972
0.0 0.023777848352114394
0.0 0.021949395807817462
0.0 0.020260810255893054
0.0 0.018701392223348035
0.0 0.017261261595524467
0.0 0.015931293340168833
0.0 0.01470306029969103
0.0 0.013568780907678948
0.0 0.012521266594167923
0.0 0.011553886383381904
0.0 0.010660490823001701
0.0 0.009835469249810385
0.0 0.009073492397563136
0.0 0.008369757630708245
0.0 0.007724062325233025
0.0 0.007132069533061962
0.0 0.006589233162322264
0.0 0.006091294331806352
0.0 0.00563569981942949
0.0 0.005219259437656596
0.0 0.004840744149600842
0.0 0.004496753658262372
0.0 0.004184246037654868
0.0 0.0039003776928411477
0.0 0.0036439045521250183
0.0 0.0034121388021156585
0.0 0.0032037956208355355
0.0 0.003017635973995322
0.0 0.002851200098627462
0.0 0.002703789574049105
0.0 0.0025740036886754613
0.0 0.0024597942793296973
0.0 0.002361099801377867
0.0 0.0022771960844358494
0.0 0.0022051559039708473
0.0 0.002144712099495593
0.0 0.0020951232896345455
0.0 0.0020541473421254617
0.0 0.0020216697696254725
0.0 0.0019960570119985227
0.0 0.0019766835398625634
0.0 0.0019620178698497746
0.0 0.0019512088600725469
0.0 0.001943240133130709
0.0 0.0019376041286637642
0.0 0.0019341233084847545
0.0 0.0019311549064892465
0.0 0.001929566523109653
0.0 0.0019273434703422666
0.0 0.0019257116883200376
0.0 0.0019241641371923037
0.0 0.0019224873963525028
0.0 0.001920667423280342
0.0 0.0019185386909690541
0.0 0.0019163093197542035
0.0 0.0019138793956080605
0.0 0.0019113464137857493
0.0 0.0019086616209664812
0.0 0.0019059830160873372
0.0 0.0019032659123287797
0.0 0.001900545270815746
0.0 0.0018978375274151971
0.0 0.0018951043553610861
0.0 0.001892513675009034
0.0 0.0018900541799433167
0.0 0.0018876867641288923
6.316681195499459e-06 0.004932619900764661
7.098635713282219e-05 0.002821896418871709
0.00011770186040577304 0.001756757386492665
0.00015885402178217236 0.0014536944413771954
2.9569610921872916e-05 0.001418128370122408
1.791227977976745e-05 0.002261081501996268
9.92926118553097e-05 0.0016249491944096846