# vtk DataFile Version 3.0
Some data
ASCII
DATASET UNSTRUCTURED_GRID
POINTS 7930 float
0.0 0.0 0.0
0.0 10.0 0.0
10.0 10.0 0.0
10.0 0.0 0.0
0.5 0.0 0.0
0.0009999999999981016 0.0 0.0
0.001999999999996203 0.0 0.0
0.002999999999994305 0.0 0.0
0.003999999999992409 0.0 0.0
0.004999999999990531 0.0 0.0
0.005999999999988653 0.0 0.0
0.006999999999986775 0.0 0.0
0.007999999999984898 0.0 0.0
0.008999999999983018 0.0 0.0
0.009999999999981142 0.0 0.0
0.01099999999997926 0.0 0.0
0.01199999999997736 0.0 0.0
0.0129999999999754 0.0 0.0
0.01399999999997343 0.0 0.0
0.01499999999997147 0.0 0.0
0.01599999999996944 0.0 0.0
0.0169999999999673 0.0 0.0
0.01799999999996516 0.0 0.0
0.01899999999996302 0.0 0.0
0.01999999999996084 0.0 0.0
0.02099999999995862 0.0 0.0
0.02199999999995639 0.0 0.0
0.02299999999995417 0.0 0.0
0.02399999999995195 0.0 0.0
0.02499999999994972 0.0 0.0
0.0259999999999475 0.0 0.0
0.02699999999994527 0.0 0.0
0.02799999999994315 0.0 0.0
0.0289999999999411 0.0 0.0
0.02999999999993905 0.0 0.0
0.030999999999937 0.0 0.0
0.03199999999993521 0.0 0.0
0.0329999999999335 0.0 0.0
0.0339999999999318 0.0 0.0
0.03499999999993009 0.0 0.0
0.03599999999992853 0.0 0.0
0.036999999999927 0.0 0.0
0.03799999999992547 0.0 0.0
0.03899999999992394 0.0 0.0
0.03999999999992241 0.0 0.0
0.04099999999992088 0.0 0.0
0.04199999999991934 0.0 0.0
0.04299999999991782 0.0 0.0
0.04399999999991629 0.0 0.0
0.04499999999991475 0.0 0.0
0.04599999999991322 0.0 0.0
0.0469999999999117 0.0 0.0
0.04799999999991016 0.0 0.0
0.04899999999990863 0.0 0.0
0.0499999999999071 0.0 0.0
0.05099999999990557 0.0 0.0
0.05199999999990404 0.0 0.0
0.05299999999990251 0.0 0.0
0.05399999999990097 0.0 0.0
0.05499999999989943 0.0 0.0
0.05599999999989791 0.0 0.0
0.05699999999989638 0.0 0.0
0.05799999999989484 0.0 0.0
0.05899999999989317 0.0 0.0
0.05999999999989129 0.0 0.0
0.06099999999988941 0.0 0.0
0.06199999999988753 0.0 0.0
0.06299999999988531 0.0 0.0
0.06399999999988273 0.0 0.0
0.06499999999988015 0.0 0.0
0.06599999999987759 0.0 0.0
0.0669999999998748 0.0 0.0
0.06799999999987189 0.0 0.0
0.06899999999986897 0.0 0.0
0.06999999999986604 0.0 0.0
0.07099999999986313 0.0 0.0
0.0719999999998602 0.0 0.0
0.07299999999985729 0.0 0.0
0.07399999999985438 0.0 0.0
0.07499999999985145 0.0 0.0
0.07599999999984854 0.0 0.0
0.07699999999984562 0.0 0.0
0.0779999999998427 0.0 0.0
0.07899999999983978 0.0 0.0
0.07999999999983685 0.0 0.0
0.08099999999983394 0.0 0.0
0.08199999999983103 0.0 0.0
0.0829999999998281 0.0 0.0
0.08399999999982519 0.0 0.0
0.08499999999982226 0.0 0.0
0.08599999999981935 0.0 0.0
0.08699999999981643 0.0 0.0
0.0879999999998135 0.0 0.0
0.08899999999981059 0.0 0.0
0.08999999999980766 0.0 0.0
0.09099999999980475 0.0 0.0
0.09199999999980184 0.0 0.0
0.09299999999979891 0.0 0.0
0.093999999999796 0.0 0.0
0.09499999999979307 0.0 0.0
0.09599999999979016 0.0 0.0
0.09699999999978724 0.0 0.0
0.09799999999978432 0.0 0.0
0.0989999999997814 0.0 0.0
0.09999999999977847 0.0 0.0
0.1009999999997756 0.0 0.0
0.1019999999997726 0.0 0.0
0.1029999999997697 0.0 0.0
0.1039999999997668 0.0 0.0
0.1049999999997639 0.0 0.0
0.105999999999761 0.0 0.0
0.106999999999758 0.0 0.0
0.1079999999997551 0.0 0.0
0.1089999999997522 0.0 0.0
0.1099999999997493 0.0 0.0
0.1109999999997464 0.0 0.0
0.1119999999997434 0.0 0.0
0.1129999999997405 0.0 0.0
0.1139999999997376 0.0 0.0
0.1149999999997347 0.0 0.0
0.1159999999997318 0.0 0.0
0.1169999999997288 0.0 0.0
0.1179999999997259 0.0 0.0
0.118999999999723 0.0 0.0
0.1199999999997201 0.0 0.0
0.1209999999997172 0.0 0.0
0.1219999999997143 0.0 0.0
0.1229999999997113 0.0 0.0
0.1239999999997084 0.0 0.0
0.1249999999997055 0.0 0.0
0.1259999999997026 0.0 0.0
0.1269999999996997 0.0 0.0
0.1279999999996967 0.0 0.0
0.1289999999996938 0.0 0.0
0.1299999999996909 0.0 0.0
0.130999999999688 0.0 0.0
0.1319999999996851 0.0 0.0
0.1329999999996822 0.0 0.0
0.1339999999996792 0.0 0.0
0.1349999999996764 0.0 0.0
0.1359999999996734 0.0 0.0
0.1369999999996705 0.0 0.0
0.1379999999996676 0.0 0.0
0.1389999999996647 0.0 0.0
0.1399999999996618 0.0 0.0
0.1409999999996588 0.0 0.0
0.1419999999996559 0.0 0.0
0.142999999999653 0.0 0.0
0.1439999999996501 0.0 0.0
0.1449999999996472 0.0 0.0
0.1459999999996442 0.0 0.0
0.1469999999996414 0.0 0.0
0.1479999999996384 0.0 0.0
0.1489999999996355 0.0 0.0
0.1499999999996326 0.0 0.0
0.1509999999996297 0.0 0.0
0.1519999999996268 0.0 0.0
0.1529999999996239 0.0 0.0
0.1539999999996209 0.0 0.0
0.154999999999618 0.0 0.0
0.1559999999996151 0.0 0.0
0.1569999999996122 0.0 0.0
0.1579999999996093 0.0 0.0
0.1589999999996064 0.0 0.0
0.1599999999996035 0.0 0.0
0.1609999999996005 0.0 0.0
0.1619999999995976 0.0 0.0
0.1629999999995947 0.0 0.0
0.1639999999995918 0.0 0.0
0.1649999999995889 0.0 0.0
0.165999999999586 0.0 0.0
0.1669999999995831 0.0 0.0
0.1679999999995801 0.0 0.0
0.1689999999995772 0.0 0.0
0.1699999999995743 0.0 0.0
0.1709999999995714 0.0 0.0
0.1719999999995685 0.0 0.0
0.1729999999995655 0.0 0.0
0.1739999999995626 0.0 0.0
0.1749999999995597 0.0 0.0
0.1759999999995568 0.0 0.0
0.1769999999995539 0.0 0.0
0.177999999999551 0.0 0.0
0.178999999999548 0.0 0.0
0.1799999999995451 0.0 0.0
0.1809999999995422 0.0 0.0
0.1819999999995393 0.0 0.0
0.1829999999995364 0.0 0.0
0.1839999999995335 0.0 0.0
0.1849999999995305 0.0 0.0
0.1859999999995277 0.0 0.0
0.1869999999995247 0.0 0.0
0.1879999999995218 0.0 0.0
0.1889999999995189 0.0 0.0
0.189999999999516 0.0 0.0
0.1909999999995131 0.0 0.0
0.1919999999995101 0.0 0.0
0.1929999999995072 0.0 0.0
0.1939999999995043 0.0 0.0
0.1949999999995014 0.0 0.0
0.1959999999994985 0.0 0.0
0.1969999999994956 0.0 0.0
0.1979999999994927 0.0 0.0
0.1989999999994897 0.0 0.0
0.1999999999994868 0.0 0.0
0.2009999999994839 0.0 0.0
0.201999999999481 0.0 0.0
0.2029999999994781 0.0 0.0
0.2039999999994752 0.0 0.0
0.2049999999994722 0.0 0.0
0.2059999999994693 0.0 0.0
0.2069999999994664 0.0 0.0
0.2079999999994635 0.0 0.0
0.2089999999994606 0.0 0.0
0.2099999999994577 0.0 0.0
0.2109999999994548 0.0 0.0
0.2119999999994518 0.0 0.0
0.2129999999994489 0.0 0.0
0.213999999999446 0.0 0.0
0.2149999999994431 0.0 0.0
0.2159999999994402 0.0 0.0
0.2169999999994373 0.0 0.0
0.2179999999994343 0.0 0.0
0.2189999999994314 0.0 0.0
0.2199999999994285 0.0 0.0
0.2209999999994256 0.0 0.0
0.2219999999994227 0.0 0.0
0.2229999999994198 0.0 0.0
0.2239999999994168 0.0 0.0
0.2249999999994139 0.0 0.0
0.225999999999411 0.0 0.0
0.2269999999994081 0.0 0.0
0.2279999999994052 0.0 0.0
0.2289999999994023 0.0 0.0
0.2299999999993994 0.0 0.0
0.2309999999993964 0.0 0.0
0.2319999999993935 0.0 0.0
0.2329999999993906 0.0 0.0
0.2339999999993877 0.0 0.0
0.2349999999993848 0.0 0.0
0.2359999999993818 0.0 0.0
0.236999999999379 0.0 0.0
0.237999999999376 0.0 0.0
0.2389999999993731 0.0 0.0
0.2399999999993702 0.0 0.0
0.2409999999993673 0.0 0.0
0.2419999999993644 0.0 0.0
0.2429999999993615 0.0 0.0
0.2439999999993585 0.0 0.0
0.2449999999993556 0.0 0.0
0.2459999999993527 0.0 0.0
0.246999999999351 0.0 0.0
0.2479999999993495 0.0 0.0
0.248999999999348 0.0 0.0
0.2499999999993464 0.0 0.0
0.2509999999993477 0.0 0.0
0.2519999999993489 0.0 0.0
0.2529999999993502 0.0 0.0
0.2539999999993516 0.0 0.0
0.2549999999993542 0.0 0.0
0.2559999999993569 0.0 0.0
0.2569999999993595 0.0 0.0
0.2579999999993621 0.0 0.0
0.2589999999993647 0.0 0.0
0.2599999999993673 0.0 0.0
0.26099999999937 0.0 0.0
0.2619999999993726 0.0 0.0
0.2629999999993753 0.0 0.0
0.2639999999993779 0.0 0.0
0.2649999999993806 0.0 0.0
0.2659999999993832 0.0 0.0
0.2669999999993858 0.0 0.0
0.2679999999993884 0.0 0.0
0.2689999999993911 0.0 0.0
0.2699999999993937 0.0 0.0
0.2709999999993963 0.0 0.0
0.271999999999399 0.0 0.0
0.2729999999994017 0.0 0.0
0.2739999999994043 0.0 0.0
0.2749999999994069 0.0 0.0
0.2759999999994096 0.0 0.0
0.2769999999994122 0.0 0.0
0.2779999999994148 0.0 0.0
0.2789999999994174 0.0 0.0
0.2799999999994201 0.0 0.0
0.2809999999994228 0.0 0.0
0.2819999999994254 0.0 0.0
0.282999999999428 0.0 0.0
0.2839999999994306 0.0 0.0
0.2849999999994333 0.0 0.0
0.2859999999994359 0.0 0.0
0.2869999999994385 0.0 0.0
0.2879999999994411 0.0 0.0
0.2889999999994439 0.0 0.0
0.2899999999994465 0.0 0.0
0.2909999999994491 0.0 0.0
0.2919999999994517 0.0 0.0
0.2929999999994544 0.0 0.0
0.293999999999457 0.0 0.0
0.2949999999994596 0.0 0.0
0.2959999999994622 0.0 0.0
0.2969999999994649 0.0 0.0
0.2979999999994676 0.0 0.0
0.2989999999994702 0.0 0.0
0.2999999999994728 0.0 0.0
0.3009999999994754 0.0 0.0
0.3019999999994781 0.0 0.0
0.3029999999994807 0.0 0.0
0.3039999999994834 0.0 0.0
0.304999999999486 0.0 0.0
0.3059999999994886 0.0 0.0
0.3069999999994913 0.0 0.0
0.3079999999994939 0.0 0.0
0.3089999999994965 0.0 0.0
0.3099999999994992 0.0 0.0
0.3109999999995018 0.0 0.0
0.3119999999995045 0.0 0.0
0.3129999999995071 0.0 0.0
0.3139999999995097 0.0 0.0
0.3149999999995123 0.0 0.0
0.315999999999515 0.0 0.0
0.3169999999995176 0.0 0.0
0.3179999999995203 0.0 0.0
0.3189999999995229 0.0 0.0
0.3199999999995256 0.0 0.0
0.3209999999995282 0.0 0.0
0.3219999999995308 0.0 0.0
0.3229999999995334 0.0 0.0
0.323999999999536 0.0 0.0
0.3249999999995387 0.0 0.0
0.3259999999995414 0.0 0.0
0.326999999999544 0.0 0.0
0.3279999999995466 0.0 0.0
0.3289999999995493 0.0 0.0
0.3299999999995519 0.0 0.0
0.3309999999995545 0.0 0.0
0.3319999999995571 0.0 0.0
0.3329999999995598 0.0 0.0
0.3339999999995625 0.0 0.0
0.3349999999995651 0.0 0.0
0.3359999999995677 0.0 0.0
0.3369999999995703 0.0 0.0
0.337999999999573 0.0 0.0
0.3389999999995756 0.0 0.0
0.3399999999995783 0.0 0.0
0.3409999999995809 0.0 0.0
0.3419999999995835 0.0 0.0
0.3429999999995862 0.0 0.0
0.3439999999995888 0.0 0.0
0.3449999999995914 0.0 0.0
0.345999999999594 0.0 0.0
0.3469999999995967 0.0 0.0
0.3479999999995994 0.0 0.0
0.348999999999602 0.0 0.0
0.3499999999996046 0.0 0.0
0.3509999999996072 0.0 0.0
0.3519999999996099 0.0 0.0
0.3529999999996125 0.0 0.0
0.3539999999996151 0.0 0.0
0.3549999999996178 0.0 0.0
0.3559999999996205 0.0 0.0
0.3569999999996231 0.0 0.0
0.3579999999996257 0.0 0.0
0.3589999999996283 0.0 0.0
0.359999999999631 0.0 0.0
0.3609999999996336 0.0 0.0
0.3619999999996362 0.0 0.0
[...]
POINT_DATA 7930
SCALARS Disp float 2
LOOKUP_TABLE default
0.0 0.0017180149248579074
0.0 0.1
0.0 0.1
0.0 0.0
7.615472830898251e-06 0.0
-6.885733436784864e-06 0.0017178502090860524
-1.3793619568189889e-05 0.0017175929571494814
-2.0677613899051645e-05 0.0017168348669103636
-2.7458874011688358e-05 0.0017155683613815466
-3.42625879533426e-05 0.0017146129178157647
-4.137621381105394e-05 0.0017137576947748295
-4.831106309699473e-05 0.0017113357773458232
-5.474399445096414e-05 0.0017083918128507284
-6.144424553218549e-05 0.0017068677802258294
-6.868170061000167e-05 0.0017057852801670513
-7.593507864199072e-05 0.0017021539492236316
-8.221177780523025e-05 0.001697506760494448
-8.84645995171256e-05 0.0016948152311634216
-9.566631712406776e-05 0.0016930663521535448
-0.0001030560467897443 0.0016889150797371358
-0.00010938266925884945 0.0016830089589798592
-0.00011553804879158123 0.0016791429981317463
-0.0001228501770679049 0.0016764866403815588
-0.0001305022229080775 0.0016711871945542188
-0.0001367489132491281 0.0016635655515378608
-0.0001427773853546674 0.0016588363236123233
-0.00015014561474921726 0.0016556483704816692
-0.00015792906723444648 0.0016492965835535145
-0.00016439564283540084 0.0016401851848117403
-0.00017023047836457265 0.0016335995798433184
-0.00017751383656847898 0.0016295592767304955
-0.0001850601760029683 0.001622107823872732
-0.0001915790176993474 0.0016117239919790389
-0.00019746491744898333 0.001603688067144442
-0.00020456300213433776 0.001598371932521723
-0.00021218989078325553 0.0015903059282694283
-0.0002189057293764465 0.00157854603944566
-0.00022471247713416292 0.0015690065165838906
-0.00023167762957806767 0.0015628502345700576
-0.00023943602086231965 0.0015534966662909906
-0.0002462407782236088 0.0015400766758566513
-0.0002519931995223526 0.0015288460903635354
-0.00025888229085318447 0.0015213608837753782
-0.0002666842797468179 0.0015109795822270445
-0.0002734382515534462 0.0014958936874421688
-0.0002790475940965974 0.001483109401368194
-0.0002859151034475369 0.001474614808126825
-0.00029387448629605476 0.001462859765764361
-0.000301078861540122 0.0014459537760998498
-0.00030672549008728834 0.0014307063973030341
-0.0003133530418063992 0.001420209715117516
-0.0003215507097719155 0.0014072770985270162
-0.00032841195552059214 0.0013884102437382883
-0.00033391607469802816 0.0013712479930051904
-0.000340348583043515 0.001358953530814951
-0.00034856550783749234 0.001344384663428677
-0.0003556578228530011 0.0013236581239045994
-0.0003611505681150551 0.0013036206516484595
-0.00036738773607600435 0.001289520073901458
-0.00037576238908457687 0.0012730482323509659
-0.00038326811276703413 0.0012496393890304653
-0.0003887743313724056 0.0012266654490190663
-0.000394640137670872 0.0012093452744724202
-0.00040278116013173817 0.0011905653094048721
-0.00041010847385452166 0.001164915316604716
-0.0004158314353968898 0.001138922010025993
-0.00042206374034678564 0.0011184293191474559
-0.00043023419544183664 0.001096472787210259
-0.00043785085519225744 0.0010670810055072209
-0.0004436031644242316 0.0010367091319926861
-0.000449517108874112 0.0010117612925371635
-0.0004575322431261911 0.0009855907666929619
-0.00046523643466356664 0.0009513500569717627
-0.0004710893964121569 0.0009151001221978588
-0.00047673690469068994 0.0008841192419351209
-0.0004845492382318874 0.0008518793008552832
-0.0004919128075200844 0.0008107970105890873
-0.0004978041358076276 0.0007665219598601183
-0.0005032434212212537 0.0007261657909695597
-0.0005115299949406966 0.000683426049513446
-0.0005193164774561175 0.0006295598922409131
-0.0005253549729832699 0.0005683965415449297
-0.0005301109095277279 0.0005082747454768206
-0.0005381064953986235 0.00043939696460333253
-0.0005436020711310328 0.0003477728959952532
-0.0005421064708396918 0.0002222043404047082
-0.0005103052762593616 0.0
-0.0004618516066685308 0.0
-0.00043478297351316617 0.0
-0.0004140381454419263 0.0
-0.0003960036230137111 0.0
-0.00038085829135885363 0.0
-0.00036736314969605454 0.0
-0.0003554211713044063 0.0
-0.00034465850792696673 0.0
-0.00033480603087561906 0.0
-0.00032575939588324053 0.0
-0.0003173615783700053 0.0
-0.00030952006867116243 0.0
-0.00030221947619175893 0.0
-0.00029533885460126294 0.0
-0.0002887637937600243 0.0
-0.00028254625028427643 0.0
-0.0002765934448367382 0.0
-0.0002709458623880651 0.0
-0.0002655443726938009 0.0
-0.000260394631301677 0.0
-0.00025546327102974627 0.0
-0.00025073521330348526 0.0
-0.0002461864119355905 0.0
-0.00024176440602829082 0.0
-0.0002375266582919424 0.0
-0.00023348691612192022 0.0
-0.000229488386340814 0.0
-0.00022566044279460424 0.0
-0.00022196308180749455 0.0
-0.00021836240200633902 0.0
-0.00021487684838989736 0.0
-0.00021149715782605783 0.0
-0.0002082027516772199 0.0
-0.00020500652834696192 0.0
-0.00020190738546399907 0.0
-0.00019889616255088305 0.0
-0.00019598928627345526 0.0
-0.00019310575983993032 0.0
-0.00019032992806939788 0.0
-0.00018761317090730303 0.0
-0.00018497564074606123 0.0
-0.00018238210374402154 0.0
-0.00017986020229698857 0.0
-0.00017739362452512506 0.0
-0.00017498098221520558 0.0
-0.00017262016718576142 0.0
-0.00017031198762270294 0.0
-0.00016805300865575337 0.0
-0.0001658395709194149 0.0
-0.00016366985817840502 0.0
-0.00016155067575958587 0.0
-0.00015948246638107521 0.0
-0.00015743388432994405 0.0
-0.00015543761825016807 0.0
-0.0001534748910721567 0.0
-0.00015155109556621704 0.0
-0.00014966134808810276 0.0
-0.00014780621698283524 0.0
-0.00014598672963155344 0.0
-0.00014420074746213416 0.0
-0.00014244639484229814 0.0
-0.00014071872335485506 0.0
-0.0001390219222696302 0.0
-0.00013735417736859254 0.0
-0.00013571228006703127 0.0
-0.00013409851027356055 0.0
-0.00013251007345741446 0.0
-0.0001309443800721042 0.0
-0.0001294029883297771 0.0
-0.0001278855496085291 0.0
-0.00012638953966027095 0.0
-0.0001249151914515398 0.0
-0.00012346514763552773 0.0
-0.00012204071419667845 0.0
-0.00012062856345233055 0.0
-0.00011924691179454856 0.0
-0.00011788344836444397 0.0
-0.0001165408685231046 0.0
-0.00011522226071127486 0.0
-0.00011391326030892645 0.0
-0.00011263182184022814 0.0
-0.00011136868441551887 0.0
-0.00011012331573603507 0.0
-0.00010889676138633634 0.0
-0.00010768753917201235 0.0
-0.00010649473918236494 0.0
-0.00010531755234435117 0.0
-0.00010415651698246827 0.0
-0.00010301039518007912 0.0
-0.00010187758358207448 0.0
-0.00010076093526528589 0.0
-9.965997603907846e-05 0.0
-9.857221740909427e-05 0.0
-9.749767752272428e-05 0.0
-9.643761455366227e-05 0.0
-9.539215274115898e-05 0.0
-9.435802448429215e-05 0.0
-9.333705342125293e-05 0.0
-9.23298478168042e-05 0.0
-9.133448640410939e-05 0.0
-9.035101669419934e-05 0.0
-8.93797430937271e-05 0.0
-8.842135641606092e-05 0.0
-8.747335724801093e-05 0.0
-8.653676971168449e-05 0.0
-8.561114357972855e-05 0.0
-8.469589288105758e-05 0.0
-8.379148310265862e-05 0.0
-8.289791721449145e-05 0.0
-8.201334556020743e-05 0.0
-8.113849753302003e-05 0.0
-8.027260778530343e-05 0.0
-7.941598277244618e-05 0.0
-7.856945330856717e-05 0.0
-7.773127996897833e-05 0.0
-7.690114983949249e-05 0.0
-7.608066153914837e-05 0.0
-7.526783067004738e-05 0.0
-7.446363521465095e-05 0.0
-7.366857461368868e-05 0.0
-7.288199395881656e-05 0.0
-7.210336709693388e-05 0.0
-7.133459603996358e-05 0.0
-7.057149160492016e-05 0.0
-6.981673928785498e-05 0.0
-6.9070162244958e-05 0.0
-6.833231962029873e-05 0.0
-6.760186515219509e-05 0.0
-6.687905447403529e-05 0.0
-6.616394378134346e-05 0.0
-6.545553628754362e-05 0.0
-6.475406379112003e-05 0.0
-6.406168127804318e-05 0.0
-6.337215958273384e-05 0.0
-6.26907047487434e-05 0.0
-6.201589209639058e-05 0.0
-6.134619045415999e-05 0.0
-6.068243970235645e-05 0.0
-6.002452159198271e-05 0.0
-5.937201907212188e-05 0.0
-5.872469479426757e-05 0.0
-5.8082868182957184e-05 0.0
-5.744639858530198e-05 0.0
-5.681493206710433e-05 0.0
-5.618913177166252e-05 0.0
-5.556843317091435e-05 0.0
-5.495294770799459e-05 0.0
-5.4343085574660935e-05 0.0
-5.373822268103476e-05 0.0
-5.3138374781298964e-05 0.0
-5.2544283440865475e-05 0.0
-5.195584190353501e-05 0.0
-5.1372369126621436e-05 0.0
-5.079500346364554e-05 0.0
-5.022293093312825e-05 0.0
-4.965674239484846e-05 0.0
-4.909612583966842e-05 0.0
-4.854084926775894e-05 0.0
-4.799086689830702e-05 0.0
-4.744616083058738e-05 0.0
-4.690681443057358e-05 0.0
-4.637226726712749e-05 0.0
-4.584284271939062e-05 0.0
-4.531888832693362e-05 0.0
-4.4799106736426625e-05 0.0
-4.428386475229001e-05 0.0
-4.3773574758568575e-05 0.0
-4.326751518877675e-05 0.0
-4.2765720795221064e-05 0.0
-4.226802214411041e-05 0.0
-4.177401537850957e-05 0.0
-4.128393491290404e-05 0.0
-4.079792061183243e-05 0.0
-4.031532205780587e-05 0.0
-3.983638989748179e-05 0.0
-3.936101312378179e-05 0.0
-3.888930328721457e-05 0.0
-3.8421214162501776e-05 0.0
-3.7956674088309254e-05 0.0
-3.7495542897815603e-05 0.0
-3.703779072532703e-05 0.0
-3.658371276160843e-05 0.0
-3.613304987520442e-05 0.0
-3.568613833889989e-05 0.0
-3.524297518089675e-05 0.0
-3.4803469057819474e-05 0.0
-3.436670777982064e-05 0.0
-3.393491300463971e-05 0.0
-3.350569608796203e-05 0.0
-3.3081293340960535e-05 0.0
-3.26594067676561e-05 0.0
-3.224145601443276e-05 0.0
-3.1827187764417206e-05 0.0
-3.141667773878495e-05 0.0
-3.100981214380175e-05 0.0
-3.060637976458509e-05 0.0
-3.0206536420116024e-05 0.0
-2.9810209286347432e-05 0.0
-2.9417214170607e-05 0.0
-2.9027408047442662e-05 0.0
-2.864088852926522e-05 0.0
-2.8257560328702596e-05 0.0
-2.7877136455965177e-05 0.0
-2.7499722366463313e-05 0.0
-2.7125337014753712e-05 0.0
-2.6753860691387064e-05 0.0
-2.6385290681756523e-05 0.0
-2.6018161447925847e-05 0.0
-2.565450464641147e-05 0.0
-2.52933558190945e-05 0.0
-2.4934705363763453e-05 0.0
-2.4579147876467927e-05 0.0
-2.422497076437599e-05 0.0
-2.387340362994985e-05 0.0
-2.3524363246969342e-05 0.0
-2.31778070430392e-05 0.0
-2.283348507060666e-05 0.0
-2.249153251868058e-05 0.0
-2.2151863625251992e-05 0.0
-2.1814709129583563e-05 0.0
-2.147992021217942e-05 0.0
-2.1147548934811116e-05 0.0
-2.0817703911587477e-05 0.0
-2.0490438044690126e-05 0.0
-2.016579774415955e-05 0.0
-1.984273656835668e-05 0.0
-1.9522747137976995e-05 0.0
-1.9205452369755065e-05 0.0
-1.8890872915201548e-05 0.0
-1.8579428621435317e-05 0.0
-1.8269518502147675e-05 0.0
-1.7962383813634878e-05 0.0
-1.7657985169234752e-05 0.0
-1.73562603723786e-05 0.0
-1.7057145765208178e-05 0.0
-1.676090779821084e-05 0.0
-1.646719229244421e-05 0.0
-1.617599510765377e-05 0.0
-1.5887286695999632e-05 0.0
-1.5601109435719627e-05 0.0
-1.5317347013630978e-05 0.0
-1.5035884363785456e-05 0.0
-1.475687497312238e-05 0.0
-1.4480345156166715e-05 0.0
-1.420592349684532e-05 0.0
-1.3933650920122146e-05 0.0
-1.3663678835931263e-05 0.0
-1.3395831070547952e-05 0.0
-1.3129924349833921e-05 0.0
-1.2866091599073451e-05 0.0
-1.2604116073614223e-05 0.0
-1.2344137405550158e-05 0.0
-1.2085995883775975e-05 0.0
-1.182962600746344e-05 0.0
-1.1574972527834632e-05 0.0
-1.1322051445523271e-05 0.0
-1.107096974116543e-05 0.0
-1.0821618936307808e-05 0.0
-1.0573914440255488e-05 0.0
-1.0327836939495994e-05 0.0
-1.0083492559823291e-05 0.0
-9.840858829077354e-06 0.0
-9.59988221903627e-06 0.0
-9.360663734788656e-06 0.0
-9.123236788733922e-06 0.0
-8.887544198665226e-06 0.0
-8.653510153844594e-06 0.0
-8.421355922689499e-06 0.0
-8.191109484164922e-06 0.0
-7.962548261412818e-06 0.0
-7.735995626598279e-06 0.0
-7.5112664676630066e-06 0.0
-7.288451151319124e-06 0.0
-7.0676917762883765e-06 0.0
-6.848828729256823e-06 0.0
-6.632014799953541e-06 0.0
-6.417179254512822e-06 0.0
-6.204265240413839e-06 0.0
-5.993467672848203e-06 0.0
-5.784741383715947e-06 0.0
-5.578023120502751e-06 0.0
-5.3733586455892875e-06 0.0
-5.170691841570336e-06 0.0
-4.9699898630184586e-06 0.0
-4.771306597978231e-06 0.0
-4.57459687583718e-06 0.0
-4.37985050679639e-06 0.0
-4.1865077638103776e-06 0.0
-3.995222120948662e-06 0.0
-3.80575294548587e-06 0.0
-3.617998071667921e-06 0.0
-3.4319004522864035e-06 0.0
-3.247417717763592e-06 0.0
-3.064466620797709e-06 0.0
-2.882979350937414e-06 0.0
-2.7029520211131303e-06 0.0
-2.5241901124973553e-06 0.0
-2.3467861028024645e-06 0.0
-2.1707122789106672e-06 0.0
-1.995813070517137e-06 0.0
-1.8220667668086903e-06 0.0
-1.649544420980208e-06 0.0
-1.4780388255190971e-06 0.0
-1.307612875568943e-06 0.0
-1.1382157167186882e-06 0.0
-9.698684902710438e-07 0.0
-8.024952366390886e-07 0.0
-6.361595796928416e-07 0.0
-4.7089831098079705e-07 0.0
-3.0659680930098667e-07 0.0
-1.433459438005547e-07 0.0
1.8823534770315745e-08 0.0
1.7993929434350083e-07 0.0
3.398841980397367e-07 0.0
4.986446451750549e-07 0.0
6.562161075051543e-07 0.0
8.125132768416544e-07 0.0
9.673911448290262e-07 0.0
1.120971703708334e-06 0.0
1.2731174600069825e-06 0.0
1.4237174830915503e-06 0.0
1.5726960994140553e-06 0.0
1.720079509679292e-06 0.0
1.8657685458096044e-06 0.0
2.009683653726074e-06 0.0
2.151726177762438e-06 0.0
2.2919429613070616e-06 0.0
2.4302074735413006e-06 0.0
2.566542343950122e-06 0.0
2.7009081585487854e-06 0.0
2.8331083683672086e-06 0.0
2.9631390550348676e-06 0.0
3.0910300180291866e-06 0.0
3.216657485451517e-06 0.0
3.3400578112592594e-06 0.0
3.461303909541394e-06 0.0
3.580253259868047e-06 0.0
3.697004412815083e-06 0.0
3.811481699965941e-06 0.0
3.923642162756511e-06 0.0
4.033561821757633e-06 0.0
4.141442207448618e-06 0.0
4.24691427103858e-06 0.0
4.35018540180782e-06 0.0
4.451248792996749e-06 0.0
4.550256663252075e-06 0.0
4.6472271560422364e-06 0.0
4.742111463295557e-06 0.0
4.834984247194097e-06 0.0
4.9259407689094764e-06 0.0
5.014974768305628e-06 0.0
5.102041869415307e-06 0.0
5.187386312784691e-06 0.0
5.270847213962916e-06 0.0
5.352578945024912e-06 0.0
5.432585860783728e-06 0.0
5.51093578466929e-06 0.0
5.587836189841884e-06 0.0
5.663028923578738e-06 0.0
5.736645522794445e-06 0.0
5.808717517254955e-06 0.0
5.879348903459751e-06 0.0
5.948583836991796e-06 0.0
6.0164972508917875e-06 0.0
6.082889867854688e-06 0.0
6.147944521707225e-06 0.0
6.211695776742808e-06 0.0
6.274029227250653e-06 0.0
6.33506380683402e-06 0.0
6.394835030962146e-06 0.0
6.453288653038561e-06 0.0
6.510432402917698e-06 0.0
6.566261269037e-06 0.0
6.620658330396406e-06 0.0
6.673813596681561e-06 0.0
6.72561842819784e-06 0.0
6.776055764673764e-06 0.0
6.825107987980818e-06 0.0
6.8726805609407055e-06 0.0
6.9188572484358195e-06 0.0
6.96366555463192e-06 0.0
7.007145536955733e-06 0.0
7.049099334057648e-06 0.0
7.089419222185809e-06 0.0
7.128241138412512e-06 0.0
7.165726825684815e-06 0.0
7.20167305841443e-06 0.0
7.236147863609911e-06 0.0
7.269082106997188e-06 0.0
7.300506417162701e-06 0.0
7.330350673319981e-06 0.0
7.358634905333218e-06 0.0
7.385467470388204e-06 0.0
7.410670537516939e-06 0.0
7.4343370197236235e-06 0.0
7.45644354490606e-06 0.0
7.477100342179069e-06 0.0
7.496307238812475e-06 0.0
7.514068249171889e-06 0.0
7.5303492097996396e-06 0.0
7.545119260575743e-06 0.0
7.558661026001981e-06 0.0
7.570794426689025e-06 0.0
7.581582800388807e-06 0.0
7.591103491610153e-06 0.0
7.599258967271205e-06 0.0
7.606331639484986e-06 0.0
7.612244411696849e-06 0.0
7.616988470608777e-06 0.0
7.620615887392721e-06 0.0
7.623266805661843e-06 0.0
7.6248666947509465e-06 0.0
7.625489382494189e-06 0.0
7.625141673428131e-06 0.0
7.623939991155681e-06 0.0
7.6219745620504974e-06 0.0
7.619106287149207e-06 0.0
7.610966156380591e-06 0.0
7.605208548463065e-06 0.0
7.598047995539667e-06 0.0
7.5892461846350705e-06 0.0
7.578533308517626e-06 0.0
7.5656646664445235e-06 0.0
7.550315802840952e-06 0.0
7.532093377612972e-06 0.0
7.510612916998913e-06 0.0
7.485366301013191e-06 0.0
7.455723753822992e-06 0.0
7.421063580691952e-06 0.0
7.380169203084973e-06 0.0
7.332083710449864e-06 0.0
7.2749709705029234e-06 0.0
7.206402886661053e-06 0.0
7.12315857849139e-06 0.0
7.022480248158551e-06 0.0
6.899125854402489e-06 0.0
6.750468882881361e-06 0.0
6.572079854346013e-06 0.0
6.360928389274479e-06 0.0
6.115626249051268e-06 0.0
5.84015479448226e-06 0.0
5.537064707892933e-06 0.0
5.211797433264567e-06 0.0
4.866749782672021e-06 0.0
4.49839426528539e-06 0.0
4.093915666799635e-06 0.0
3.636551514252149e-06 0.0
3.1127452087800673e-06 0.0
2.5258777840970333e-06 0.0
1.9054870647128484e-06 0.0
1.3134927331931834e-06 0.0
8.049041552624613e-07 0.0
4.266134391369264e-07 0.0
1.8770168110896574e-07 0.0
6.739753650119996e-08 0.0
2.0099728605903443e-08 0.0
4.50618301694787e-09 0.0
6.575793633365669e-10 0.0
4.8866354140636605e-11 0.0
4.4740024522957044e-12 0.0
-4.527150118141247e-14 0.0
2.2546216237008544e-14 0.0
-1.1452437467520251e-14 0.0
1.8574327318628443e-15 0.0
7.17580444296044e-16 0.0
2.8514137839663033e-16 0.0
9.406624080854595e-17 0.0
-1.1317461496143644e-17 0.0
2.5969223852355095e-17 0.0
4.173491062166988e-17 0.0
-4.385582701329523e-17 0.0
-1.4955957162162085e-16 0.0
-2.458146554895402e-16 0.0
-2.8246835832215294e-16 0.0
-2.1800077950105827e-16 0.0
6.247783543751817e-17 0.0
3.8440461698521245e-16 0.0
3.2933865594049865e-16 0.0
2.9842723975304616e-16 0.0
3.6360080820769667e-16 0.0
-9.257482324307624e-17 0.0
-2.949305804524828e-16 0.0
-3.751839495203988e-16 0.0
-1.7273249107813868e-16 0.0
1.8390106123407926e-16 0.0
-3.187847658281284e-17 0.0
-1.8389259953075368e-16 0.0
2.952516068985937e-16 0.0
7.716099557343231e-16 0.0
-1.4522093886707456e-15 0.0
2.6533301094858016e-16 0.0
1.7727462502528411e-15 0.0
-1.1694100771492533e-15 0.0
-2.694825811575915e-16 0.0
6.774515841633602e-16 0.0
-1.0578732551055588e-15 0.0
0.0 0.0092341652872601
0.0 0.022109785930459862
0.0 0.04006285207146962
0.0 0.06509563926313162
-1.415705983645829e-15 0.1
-2.1145866973900933e-15 0.1
2.4090442943036373e-14 0.1
-2.5790816396331413e-14 0.1
0.0 0.09234095951660347
0.0 0.08526779443703361
0.0 0.0787356878349856
0.0 0.07270325358165813
0.0 0.06713226878993046
0.0 0.06198743331092664
0.0 0.05723615233795995
0.0 0.05284831692952193
0.0 0.048796128449946345
0.0 0.04505391065784806
0.0 0.04159795282711808
0.0 0.0384063572425721
0.0 0.03545890171822767
0.0 0.032736910873332234
0.0 0.03022313773603358
0.0 0.02790165483820747
0.0 0.025757753001963087
0.0 0.023777848352117242
0.0 0.02194939580780562
0.0 0.02026081025588983
0.0 0.018701392223679714
0.0 0.017261261594975565
0.0 0.015931293336381096
0.0 0.014703060378350832
0.0 0.013568780772358102
0.0 0.012521267540924395
0.0 0.01155388331198566
0.0 0.010660498906721659
0.0 0.009835455248874695
0.0 0.009073519822209325
0.0 0.00836982263021817
0.0 0.007719559405452253
0.0 0.007122747414771796
0.0 0.006575434154584294
0.0 0.0060734643369368705
0.0 0.005613142522970497
0.0 0.0051919136372862535
0.0 0.0048068331993692546
0.0 0.004456442398437335
0.0 0.004137899811462112
0.0 0.0038482751071489446
0.0 0.0035859162967453915
0.0 0.003347834814876064
0.0 0.0031331319483037154
0.0 0.0029405384564316376
0.0 0.002767636321016725
0.0 0.0026135997181176533
0.0 0.002476783833915121
0.0 0.002355547997987431
0.0 0.0022497684959001552
0.0 0.0021589335033567083
0.0 0.0020801723716971044
0.0 0.0020131685779007104
0.0 0.0019573320846605203
0.0 0.0019105650394656611
0.0 0.0018725681287662093
0.0 0.001842214962683177
0.0 0.001818698919161805
0.0 0.0018004025782113852
0.0 0.0017867187632180082
0.0 0.0017765821422872615
0.0 0.0017694126728467659
0.0 0.001764856798926651
0.0 0.0017611253158174695
0.0 0.0017591399300780134
0.0 0.0017568618723152903
0.0 0.001755384340596252
0.0 0.0017540591553023184
0.0 0.0017526123283575408
0.0 0.0017510636712441908
0.0 0.0017492292626763637
0.0 0.0017473115160018037
0.0 0.0017451708999484713
0.0 0.0017428955809918822
0.0 0.0017404284861280257
0.0 0.0017379461888352376
0.0 0.0017354018229525133
0.0 0.001732828969694789
0.0 0.0017302455384971094
0.0 0.0017276097399124557
0.0 0.001725097148395733
0.0 0.001722675988659792
0.0 0.001720313311485288
1.5185374181139051e-06 0.004928757388824571
5.705785545568505e-05 0.0028045106821456825
0.000100376004269448 0.0017033436406202502
0.00014034322625781418 0.0013361450864544742
2.8039615360877685e-05 0.0014099946504659597
1.1530508305979347e-05 0.002262021808907325
0.00010912775027212345 0.0014382354225261787
1.5017059114138115e-05 0.0012813647565589718
1.902408359398954e-05 0.0008580508432735407
-6.37343505269712e-06 0.0007782787033433854
-3.4351876160051734e-06 0.0007053543416679247