# vtk DataFile Version 3.0
Some data
ASCII
DATASET UNSTRUCTURED_GRID
POINTS 7930 float
0.0 0.0 0.0
0.0 10.0 0.0
10.0 10.0 0.0
10.0 0.0 0.0
0.5 0.0 0.0
0.0009999999999981016 0.0 0.0
0.001999999999996203 0.0 0.0
0.002999999999994305 0.0 0.0
0.003999999999992409 0.0 0.0
0.004999999999990531 0.0 0.0
0.005999999999988653 0.0 0.0
0.006999999999986775 0.0 0.0
0.007999999999984898 0.0 0.0
0.008999999999983018 0.0 0.0
0.009999999999981142 0.0 0.0
0.01099999999997926 0.0 0.0
0.01199999999997736 0.0 0.0
0.0129999999999754 0.0 0.0
0.01399999999997343 0.0 0.0
0.01499999999997147 0.0 0.0
0.01599999999996944 0.0 0.0
0.0169999999999673 0.0 0.0
0.01799999999996516 0.0 0.0
0.01899999999996302 0.0 0.0
0.01999999999996084 0.0 0.0
0.02099999999995862 0.0 0.0
0.02199999999995639 0.0 0.0
0.02299999999995417 0.0 0.0
0.02399999999995195 0.0 0.0
0.02499999999994972 0.0 0.0
0.0259999999999475 0.0 0.0
0.02699999999994527 0.0 0.0
0.02799999999994315 0.0 0.0
0.0289999999999411 0.0 0.0
0.02999999999993905 0.0 0.0
0.030999999999937 0.0 0.0
0.03199999999993521 0.0 0.0
0.0329999999999335 0.0 0.0
0.0339999999999318 0.0 0.0
0.03499999999993009 0.0 0.0
0.03599999999992853 0.0 0.0
0.036999999999927 0.0 0.0
0.03799999999992547 0.0 0.0
0.03899999999992394 0.0 0.0
0.03999999999992241 0.0 0.0
0.04099999999992088 0.0 0.0
0.04199999999991934 0.0 0.0
0.04299999999991782 0.0 0.0
0.04399999999991629 0.0 0.0
0.04499999999991475 0.0 0.0
0.04599999999991322 0.0 0.0
0.0469999999999117 0.0 0.0
0.04799999999991016 0.0 0.0
0.04899999999990863 0.0 0.0
0.0499999999999071 0.0 0.0
0.05099999999990557 0.0 0.0
0.05199999999990404 0.0 0.0
0.05299999999990251 0.0 0.0
0.05399999999990097 0.0 0.0
0.05499999999989943 0.0 0.0
0.05599999999989791 0.0 0.0
0.05699999999989638 0.0 0.0
0.05799999999989484 0.0 0.0
0.05899999999989317 0.0 0.0
0.05999999999989129 0.0 0.0
0.06099999999988941 0.0 0.0
0.06199999999988753 0.0 0.0
0.06299999999988531 0.0 0.0
0.06399999999988273 0.0 0.0
0.06499999999988015 0.0 0.0
0.06599999999987759 0.0 0.0
0.0669999999998748 0.0 0.0
0.06799999999987189 0.0 0.0
0.06899999999986897 0.0 0.0
0.06999999999986604 0.0 0.0
0.07099999999986313 0.0 0.0
0.0719999999998602 0.0 0.0
0.07299999999985729 0.0 0.0
0.07399999999985438 0.0 0.0
0.07499999999985145 0.0 0.0
0.07599999999984854 0.0 0.0
0.07699999999984562 0.0 0.0
0.0779999999998427 0.0 0.0
0.07899999999983978 0.0 0.0
0.07999999999983685 0.0 0.0
0.08099999999983394 0.0 0.0
0.08199999999983103 0.0 0.0
0.0829999999998281 0.0 0.0
0.08399999999982519 0.0 0.0
0.08499999999982226 0.0 0.0
0.08599999999981935 0.0 0.0
0.08699999999981643 0.0 0.0
0.0879999999998135 0.0 0.0
0.08899999999981059 0.0 0.0
0.08999999999980766 0.0 0.0
0.09099999999980475 0.0 0.0
0.09199999999980184 0.0 0.0
0.09299999999979891 0.0 0.0
0.093999999999796 0.0 0.0
0.09499999999979307 0.0 0.0
0.09599999999979016 0.0 0.0
0.09699999999978724 0.0 0.0
0.09799999999978432 0.0 0.0
0.0989999999997814 0.0 0.0
0.09999999999977847 0.0 0.0
0.1009999999997756 0.0 0.0
0.1019999999997726 0.0 0.0
0.1029999999997697 0.0 0.0
0.1039999999997668 0.0 0.0
0.1049999999997639 0.0 0.0
0.105999999999761 0.0 0.0
0.106999999999758 0.0 0.0
0.1079999999997551 0.0 0.0
0.1089999999997522 0.0 0.0
0.1099999999997493 0.0 0.0
0.1109999999997464 0.0 0.0
0.1119999999997434 0.0 0.0
0.1129999999997405 0.0 0.0
0.1139999999997376 0.0 0.0
0.1149999999997347 0.0 0.0
0.1159999999997318 0.0 0.0
0.1169999999997288 0.0 0.0
0.1179999999997259 0.0 0.0
0.118999999999723 0.0 0.0
0.1199999999997201 0.0 0.0
0.1209999999997172 0.0 0.0
0.1219999999997143 0.0 0.0
0.1229999999997113 0.0 0.0
0.1239999999997084 0.0 0.0
0.1249999999997055 0.0 0.0
0.1259999999997026 0.0 0.0
0.1269999999996997 0.0 0.0
0.1279999999996967 0.0 0.0
0.1289999999996938 0.0 0.0
0.1299999999996909 0.0 0.0
0.130999999999688 0.0 0.0
0.1319999999996851 0.0 0.0
0.1329999999996822 0.0 0.0
0.1339999999996792 0.0 0.0
0.1349999999996764 0.0 0.0
0.1359999999996734 0.0 0.0
0.1369999999996705 0.0 0.0
0.1379999999996676 0.0 0.0
0.1389999999996647 0.0 0.0
0.1399999999996618 0.0 0.0
0.1409999999996588 0.0 0.0
0.1419999999996559 0.0 0.0
0.142999999999653 0.0 0.0
0.1439999999996501 0.0 0.0
0.1449999999996472 0.0 0.0
0.1459999999996442 0.0 0.0
0.1469999999996414 0.0 0.0
0.1479999999996384 0.0 0.0
0.1489999999996355 0.0 0.0
0.1499999999996326 0.0 0.0
0.1509999999996297 0.0 0.0
0.1519999999996268 0.0 0.0
0.1529999999996239 0.0 0.0
0.1539999999996209 0.0 0.0
0.154999999999618 0.0 0.0
0.1559999999996151 0.0 0.0
0.1569999999996122 0.0 0.0
0.1579999999996093 0.0 0.0
0.1589999999996064 0.0 0.0
0.1599999999996035 0.0 0.0
0.1609999999996005 0.0 0.0
0.1619999999995976 0.0 0.0
0.1629999999995947 0.0 0.0
0.1639999999995918 0.0 0.0
0.1649999999995889 0.0 0.0
0.165999999999586 0.0 0.0
0.1669999999995831 0.0 0.0
0.1679999999995801 0.0 0.0
0.1689999999995772 0.0 0.0
0.1699999999995743 0.0 0.0
0.1709999999995714 0.0 0.0
0.1719999999995685 0.0 0.0
0.1729999999995655 0.0 0.0
0.1739999999995626 0.0 0.0
0.1749999999995597 0.0 0.0
0.1759999999995568 0.0 0.0
0.1769999999995539 0.0 0.0
0.177999999999551 0.0 0.0
0.178999999999548 0.0 0.0
0.1799999999995451 0.0 0.0
0.1809999999995422 0.0 0.0
0.1819999999995393 0.0 0.0
0.1829999999995364 0.0 0.0
0.1839999999995335 0.0 0.0
0.1849999999995305 0.0 0.0
0.1859999999995277 0.0 0.0
0.1869999999995247 0.0 0.0
0.1879999999995218 0.0 0.0
0.1889999999995189 0.0 0.0
0.189999999999516 0.0 0.0
0.1909999999995131 0.0 0.0
0.1919999999995101 0.0 0.0
0.1929999999995072 0.0 0.0
0.1939999999995043 0.0 0.0
0.1949999999995014 0.0 0.0
0.1959999999994985 0.0 0.0
0.1969999999994956 0.0 0.0
0.1979999999994927 0.0 0.0
0.1989999999994897 0.0 0.0
0.1999999999994868 0.0 0.0
0.2009999999994839 0.0 0.0
0.201999999999481 0.0 0.0
0.2029999999994781 0.0 0.0
0.2039999999994752 0.0 0.0
0.2049999999994722 0.0 0.0
0.2059999999994693 0.0 0.0
0.2069999999994664 0.0 0.0
0.2079999999994635 0.0 0.0
0.2089999999994606 0.0 0.0
0.2099999999994577 0.0 0.0
0.2109999999994548 0.0 0.0
0.2119999999994518 0.0 0.0
0.2129999999994489 0.0 0.0
0.213999999999446 0.0 0.0
0.2149999999994431 0.0 0.0
0.2159999999994402 0.0 0.0
0.2169999999994373 0.0 0.0
0.2179999999994343 0.0 0.0
0.2189999999994314 0.0 0.0
0.2199999999994285 0.0 0.0
0.2209999999994256 0.0 0.0
0.2219999999994227 0.0 0.0
0.2229999999994198 0.0 0.0
0.2239999999994168 0.0 0.0
0.2249999999994139 0.0 0.0
0.225999999999411 0.0 0.0
0.2269999999994081 0.0 0.0
0.2279999999994052 0.0 0.0
0.2289999999994023 0.0 0.0
0.2299999999993994 0.0 0.0
0.2309999999993964 0.0 0.0
0.2319999999993935 0.0 0.0
0.2329999999993906 0.0 0.0
0.2339999999993877 0.0 0.0
0.2349999999993848 0.0 0.0
0.2359999999993818 0.0 0.0
0.236999999999379 0.0 0.0
0.237999999999376 0.0 0.0
0.2389999999993731 0.0 0.0
0.2399999999993702 0.0 0.0
0.2409999999993673 0.0 0.0
0.2419999999993644 0.0 0.0
0.2429999999993615 0.0 0.0
0.2439999999993585 0.0 0.0
0.2449999999993556 0.0 0.0
0.2459999999993527 0.0 0.0
0.246999999999351 0.0 0.0
0.2479999999993495 0.0 0.0
0.248999999999348 0.0 0.0
0.2499999999993464 0.0 0.0
0.2509999999993477 0.0 0.0
0.2519999999993489 0.0 0.0
0.2529999999993502 0.0 0.0
0.2539999999993516 0.0 0.0
0.2549999999993542 0.0 0.0
0.2559999999993569 0.0 0.0
0.2569999999993595 0.0 0.0
0.2579999999993621 0.0 0.0
0.2589999999993647 0.0 0.0
0.2599999999993673 0.0 0.0
0.26099999999937 0.0 0.0
0.2619999999993726 0.0 0.0
0.2629999999993753 0.0 0.0
0.2639999999993779 0.0 0.0
0.2649999999993806 0.0 0.0
0.2659999999993832 0.0 0.0
0.2669999999993858 0.0 0.0
0.2679999999993884 0.0 0.0
0.2689999999993911 0.0 0.0
0.2699999999993937 0.0 0.0
0.2709999999993963 0.0 0.0
0.271999999999399 0.0 0.0
0.2729999999994017 0.0 0.0
0.2739999999994043 0.0 0.0
0.2749999999994069 0.0 0.0
0.2759999999994096 0.0 0.0
0.2769999999994122 0.0 0.0
0.2779999999994148 0.0 0.0
0.2789999999994174 0.0 0.0
0.2799999999994201 0.0 0.0
0.2809999999994228 0.0 0.0
0.2819999999994254 0.0 0.0
0.282999999999428 0.0 0.0
0.2839999999994306 0.0 0.0
0.2849999999994333 0.0 0.0
0.2859999999994359 0.0 0.0
0.2869999999994385 0.0 0.0
0.2879999999994411 0.0 0.0
0.2889999999994439 0.0 0.0
0.2899999999994465 0.0 0.0
0.2909999999994491 0.0 0.0
0.2919999999994517 0.0 0.0
0.2929999999994544 0.0 0.0
0.293999999999457 0.0 0.0
0.2949999999994596 0.0 0.0
0.2959999999994622 0.0 0.0
0.2969999999994649 0.0 0.0
0.2979999999994676 0.0 0.0
0.2989999999994702 0.0 0.0
0.2999999999994728 0.0 0.0
0.3009999999994754 0.0 0.0
0.3019999999994781 0.0 0.0
0.3029999999994807 0.0 0.0
0.3039999999994834 0.0 0.0
0.304999999999486 0.0 0.0
0.3059999999994886 0.0 0.0
0.3069999999994913 0.0 0.0
0.3079999999994939 0.0 0.0
0.3089999999994965 0.0 0.0
0.3099999999994992 0.0 0.0
0.3109999999995018 0.0 0.0
0.3119999999995045 0.0 0.0
0.3129999999995071 0.0 0.0
0.3139999999995097 0.0 0.0
0.3149999999995123 0.0 0.0
0.315999999999515 0.0 0.0
0.3169999999995176 0.0 0.0
0.3179999999995203 0.0 0.0
0.3189999999995229 0.0 0.0
0.3199999999995256 0.0 0.0
0.3209999999995282 0.0 0.0
0.3219999999995308 0.0 0.0
0.3229999999995334 0.0 0.0
0.323999999999536 0.0 0.0
0.3249999999995387 0.0 0.0
0.3259999999995414 0.0 0.0
0.326999999999544 0.0 0.0
0.3279999999995466 0.0 0.0
0.3289999999995493 0.0 0.0
0.3299999999995519 0.0 0.0
0.3309999999995545 0.0 0.0
0.3319999999995571 0.0 0.0
0.3329999999995598 0.0 0.0
0.3339999999995625 0.0 0.0
0.3349999999995651 0.0 0.0
0.3359999999995677 0.0 0.0
0.3369999999995703 0.0 0.0
0.337999999999573 0.0 0.0
0.3389999999995756 0.0 0.0
0.3399999999995783 0.0 0.0
0.3409999999995809 0.0 0.0
0.3419999999995835 0.0 0.0
0.3429999999995862 0.0 0.0
0.3439999999995888 0.0 0.0
0.3449999999995914 0.0 0.0
0.345999999999594 0.0 0.0
0.3469999999995967 0.0 0.0
0.3479999999995994 0.0 0.0
0.348999999999602 0.0 0.0
0.3499999999996046 0.0 0.0
0.3509999999996072 0.0 0.0
0.3519999999996099 0.0 0.0
0.3529999999996125 0.0 0.0
0.3539999999996151 0.0 0.0
0.3549999999996178 0.0 0.0
0.3559999999996205 0.0 0.0
0.3569999999996231 0.0 0.0
0.3579999999996257 0.0 0.0
0.3589999999996283 0.0 0.0
0.359999999999631 0.0 0.0
0.3609999999996336 0.0 0.0
0.3619999999996362 0.0 0.0
[...]
POINT_DATA 7930
SCALARS Disp float 2
LOOKUP_TABLE default
0.0 0.0017805587398409515
0.0 0.1
0.0 0.1
0.0 0.0
7.807318925252789e-06 0.0
-6.7892787349463405e-06 0.0017805437945940534
-1.3578052235801943e-05 0.0017802121553951898
-2.0324308995788768e-05 0.001779415257118246
-2.7170527819007172e-05 0.0017787557642164492
-3.414827319561729e-05 0.0017780942876058396
-4.1010727783001035e-05 0.0017763474533043686
-4.75059635261684e-05 0.0017742111110358666
-5.427377436505846e-05 0.0017730967912048209
-6.157976211122034e-05 0.0017717939946903412
-6.877749592739615e-05 0.0017688213878406117
-7.516769017207908e-05 0.0017646368531996726
-8.152050539448679e-05 0.0017624528033401148
-8.893069905726919e-05 0.001760903566196922
-9.618343186787014e-05 0.0017569397580789493
-0.00010253360229292453 0.0017514412180894216
-0.00010886722862907754 0.0017479529661521402
-0.00011614948149645916 0.0017455434480802923
-0.00012367159433165833 0.0017405717760359588
-0.00012991300606632938 0.0017338185835282292
-0.00013602106425952273 0.0017293377560634309
-0.0001433324913113047 0.0017264304474095362
-0.000151006882737748 0.0017202750632034746
-0.0001572896547783817 0.0017118148590451695
-0.00016310632620292136 0.0017060949604402243
-0.0001703700474357547 0.001702725208533727
-0.00017808989624905661 0.0016956516563422933
-0.0001843748767403852 0.0016858524059824964
-0.00019010204832436197 0.001678908960197434
-0.00019728016121187155 0.0016745351524354302
-0.00020525786245370663 0.0016668473881757803
-0.00021185109652740864 0.001655730393858986
-0.0002177898731457012 0.0016472060144720486
-0.00022503149595430846 0.0016415670050961473
-0.00023262832064278277 0.0016327491802813426
-0.0002393041992813966 0.0016198767812971367
-0.0002448816068951016 0.001609739416142639
-0.0002518758350747474 0.0016032654175772527
-0.0002600289686282839 0.001593647802727783
-0.0002667494493309648 0.001579350676115185
-0.00027247806329833135 0.0015675881341043287
-0.0002796149593576015 0.0015596910683017837
-0.0002873819054727189 0.0015485482220106567
-0.0002942916627596566 0.0015324585133569325
-0.0002996775801422693 0.0015186853328696705
-0.0003063413830659158 0.0015094831560061195
-0.0003145086869817546 0.0014975027628208913
-0.00032133166352608857 0.0014801520742448052
-0.00032713447788853146 0.0014644409378059906
-0.0003338352113906754 0.0014533605735654487
-0.0003418307939712861 0.0014399263117938436
-0.0003491094265202633 0.0014206118197290982
-0.0003547264347329731 0.0014024106228363138
-0.0003610481949630464 0.0013896441838990605
-0.00036920194467082826 0.0013742197511370342
-0.00037643354291490104 0.0013524783471354355
-0.00038177744298902646 0.0013319343918358534
-0.00038796003881580313 0.0013170040989220074
-0.0003961325544681846 0.0013002197372348433
-0.000403762558249127 0.0012766331698502481
-0.0004093530820916184 0.0012531502052792027
-0.00041554467022211045 0.00123499184670288
-0.00042323478042376194 0.0012156013312753949
-0.00043078657035071984 0.001189041190182071
-0.0004363931285909883 0.0011620524815727704
-0.0004423711874447268 0.0011407630131089516
-0.00045022093164717524 0.0011184653062728108
-0.0004579866805268093 0.0010884946586428564
-0.00046366202325239317 0.001057337548852703
-0.0004695791543867874 0.001031690278370587
-0.00047740389034623505 0.0010050992880221924
-0.00048545231370350267 0.0009701280275313449
-0.0004912757543742168 0.0009329213204820175
-0.0004970148847396062 0.0009011183359022529
-0.0005046342771994146 0.0008682565136665236
-0.000512979338008502 0.0008260366938289809
-0.0005184489207500023 0.0007801396294156892
-0.0005239092126393746 0.0007385809672801052
-0.000531290512814465 0.0006955356391565818
-0.0005399830100715581 0.0006407587849394717
-0.0005455123966649799 0.0005784134426031283
-0.000550994616238607 0.0005162141863992384
-0.0005578453916111473 0.0004462433394954715
-0.0005645653986386063 0.00035118269129270045
-0.0005568029457810836 0.00022080753007918622
-0.0005272366453367344 0.0
-0.00048524567147321317 0.0
-0.00045574387978478646 0.0
-0.00043153126903593434 0.0
-0.00041256407065242133 0.0
-0.0003970277453125216 0.0
-0.0003833365409802625 0.0
-0.00037120174474381906 0.0
-0.00036023338584046386 0.0
-0.00035018012247187136 0.0
-0.000340996118899109 0.0
-0.00033245544078842204 0.0
-0.00032435828758483964 0.0
-0.00031679001385714417 0.0
-0.0003095995642530635 0.0
-0.0003028336477051822 0.0
-0.00029640997636717307 0.0
-0.0002903265040445747 0.0
-0.00028453581447934913 0.0
-0.0002790157449766476 0.0
-0.0002737312540328997 0.0
-0.0002686139133783361 0.0
-0.0002637349728825327 0.0
-0.00025910878129644434 0.0
-0.0002545370183681631 0.0
-0.0002501800218557085 0.0
-0.0002459865010572892 0.0
-0.00024191189855121998 0.0
-0.00023797701762016762 0.0
-0.00023416866492321234 0.0
-0.00023045959163551404 0.0
-0.00022686471110544638 0.0
-0.00022338168569748055 0.0
-0.00021999876753225678 0.0
-0.00021673514882377288 0.0
-0.00021349323301400093 0.0
-0.00021037711333427012 0.0
-0.00020732690272042266 0.0
-0.00020436777246469936 0.0
-0.00020145909485882609 0.0
-0.00019863429625689656 0.0
-0.0001958750547755401 0.0
-0.000193180500098443 0.0
-0.00019054786790527513 0.0
-0.00018797863690552685 0.0
-0.00018546841293055303 0.0
-0.0001830130778523261 0.0
-0.00018060968955758695 0.0
-0.000178265776793289 0.0
-0.0001759810222129593 0.0
-0.00017371851298556416 0.0
-0.0001715158925641891 0.0
-0.00016935040795140136 0.0
-0.00016722834312935813 0.0
-0.00016514395872168074 0.0
-0.00016309800621314767 0.0
-0.00016109189630193174 0.0
-0.0001591236303932725 0.0
-0.00015719143554641485 0.0
-0.00015529025634152734 0.0
-0.00015342536931550274 0.0
-0.00015159530014127194 0.0
-0.00014979674587629725 0.0
-0.00014803222835924306 0.0
-0.00014629882416591916 0.0
-0.00014459386863243114 0.0
-0.00014291858470892702 0.0
-0.00014127229880301343 0.0
-0.000139651575012142 0.0
-0.00013805610825308408 0.0
-0.00013648820370633786 0.0
-0.0001349487792551575 0.0
-0.00013342182438214224 0.0
-0.00013192826128515726 0.0
-0.00013045296916383027 0.0
-0.00012899867324679657 0.0
-0.00012756900253541828 0.0
-0.0001261469824962595 0.0
-0.00012475444533752188 0.0
-0.00012337967937065556 0.0
-0.00012202265951509114 0.0
-0.00012068519636081975 0.0
-0.00011936588986489247 0.0
-0.00011806416088884683 0.0
-0.00011677943143927569 0.0
-0.00011551263787893387 0.0
-0.00011426267135530898 0.0
-0.00011302809732721125 0.0
-0.00011181198584901828 0.0
-0.00011061379626598015 0.0
-0.00010943083962999171 0.0
-0.00010826305889264069 0.0
-0.00010711160977970916 0.0
-0.00010597633682650786 0.0
-0.0001048535803906333 0.0
-0.00010374506374922946 0.0
-0.00010265127195443521 0.0
-0.0001015699531772121 0.0
-0.00010050099837746194 0.0
-9.944481523027006e-05 0.0
-9.840219349294019e-05 0.0
-9.737034652303039e-05 0.0
-9.635060313496287e-05 0.0
-9.534257370555384e-05 0.0
-9.434585067978626e-05 0.0
-9.336120109633639e-05 0.0
-9.238878068749437e-05 0.0
-9.142677410484293e-05 0.0
-9.047616711028185e-05 0.0
-8.95362277680433e-05 0.0
-8.860745960875646e-05 0.0
-8.769075359673525e-05 0.0
-8.678415853800782e-05 0.0
-8.588736989099727e-05 0.0
-8.500192517167334e-05 0.0
-8.412556991933697e-05 0.0
-8.32591515737516e-05 0.0
-8.240300868086374e-05 0.0
-8.155623615901655e-05 0.0
-8.071799183314503e-05 0.0
-7.989016810589209e-05 0.0
-7.906800464977842e-05 0.0
-7.825428261288513e-05 0.0
-7.744873068750846e-05 0.0
-7.665189865692432e-05 0.0
-7.586228928342392e-05 0.0
-7.508021391505031e-05 0.0
-7.430585252636348e-05 0.0
-7.353823978589746e-05 0.0
-7.277777741546207e-05 0.0
-7.20269710643135e-05 0.0
-7.127933278804103e-05 0.0
-7.054064338333817e-05 0.0
-6.980958802851863e-05 0.0
-6.908473913472759e-05 0.0
-6.836711897138998e-05 0.0
-6.765677989774581e-05 0.0
-6.695334401705233e-05 0.0
-6.625661003021406e-05 0.0
-6.556695043093471e-05 0.0
-6.488418686846132e-05 0.0
-6.420789740709703e-05 0.0
-6.353866403672452e-05 0.0
-6.287574791869595e-05 0.0
-6.221910850232977e-05 0.0
-6.156903888585124e-05 0.0
-6.092459991032014e-05 0.0
-6.028560533280024e-05 0.0
-5.965272804697325e-05 0.0
-5.902556741441225e-05 0.0
-5.8403200933718296e-05 0.0
-5.77868111228463e-05 0.0
-5.717532475760651e-05 0.0
-5.656921506991406e-05 0.0
-5.596813443779989e-05 0.0
-5.537181657488726e-05 0.0
-5.478013772714784e-05 0.0
-5.419312725932541e-05 0.0
-5.3610996547365573e-05 0.0
-5.303312827527612e-05 0.0
-5.245997936449484e-05 0.0
-5.1892077784413564e-05 0.0
-5.132815095542237e-05 0.0
-5.07687304869744e-05 0.0
-5.021441311622664e-05 0.0
-4.966457646867148e-05 0.0
-4.9119359491598424e-05 0.0
-4.85787359597609e-05 0.0
-4.804240767889447e-05 0.0
-4.751064952909275e-05 0.0
-4.698371670538166e-05 0.0
-4.6460973944964776e-05 0.0
-4.5942744046852906e-05 0.0
-4.542890537655175e-05 0.0
-4.491956593889883e-05 0.0
-4.441465132389799e-05 0.0
-4.391404595537926e-05 0.0
-4.341754848680008e-05 0.0
-4.29250636303321e-05 0.0
-4.243680840455331e-05 0.0
-4.195244662809531e-05 0.0
-4.147222306156676e-05 0.0
-4.0996052289323016e-05 0.0
-4.052376625166467e-05 0.0
-4.0054248002883305e-05 0.0
-3.9590030445395864e-05 0.0
-3.912820443826368e-05 0.0
-3.867123302992014e-05 0.0
-3.821662809684679e-05 0.0
-3.7765833322332466e-05 0.0
-3.731859852428859e-05 0.0
-3.687496684265075e-05 0.0
-3.643484058030802e-05 0.0
-3.5998005097074486e-05 0.0
-3.556464922235875e-05 0.0
-3.513472119026739e-05 0.0
-3.470807859985201e-05 0.0
-3.428464539869537e-05 0.0
-3.386453159749091e-05 0.0
-3.344772166218593e-05 0.0
-3.303394466868978e-05 0.0
-3.2623387442392015e-05 0.0
-3.221615963857095e-05 0.0
-3.181214850347856e-05 0.0
-3.141144441215736e-05 0.0
-3.1012502468800936e-05 0.0
-3.061752524263686e-05 0.0
-3.0225534981105185e-05 0.0
-2.9836583308922008e-05 0.0
-2.945130191005131e-05 0.0
-2.906784804455156e-05 0.0
-2.8687558860874195e-05 0.0
-2.8310349952369375e-05 0.0
-2.793616356929284e-05 0.0
-2.7564694172795945e-05 0.0
-2.7196051960859808e-05 0.0
-2.6830132742715866e-05 0.0
-2.6467132638352845e-05 0.0
-2.610683987173554e-05 0.0
-2.5749247515057353e-05 0.0
-2.5394429524557717e-05 0.0
-2.504240446163645e-05 0.0
-2.4693127356852334e-05 0.0
-2.4345388167119332e-05 0.0
-2.400081376977615e-05 0.0
-2.365888505234533e-05 0.0
-2.3319566352012307e-05 0.0
-2.298332649313119e-05 0.0
-2.264829385246163e-05 0.0
-2.2315812581716773e-05 0.0
-2.198583420342292e-05 0.0
-2.1658250348782844e-05 0.0
-2.1332939233844764e-05 0.0
-2.1010226264827536e-05 0.0
-2.0689718580727817e-05 0.0
-2.037143146457769e-05 0.0
-2.0055323440260503e-05 0.0
-1.974146198239597e-05 0.0
-1.9429753859793325e-05 0.0
-1.9120102037132365e-05 0.0
-1.881271390691626e-05 0.0
-1.8507681635630844e-05 0.0
-1.8204638416592016e-05 0.0
-1.790367623388017e-05 0.0
-1.76050359629258e-05 0.0
-1.730857321525447e-05 0.0
-1.701413865038291e-05 0.0
-1.672194499173267e-05 0.0
-1.643180130369048e-05 0.0
-1.6143920529436708e-05 0.0
-1.5858167431428503e-05 0.0
-1.5574517273661506e-05 0.0
-1.5292943098917373e-05 0.0
-1.5013499128671837e-05 0.0
-1.4736328961308322e-05 0.0
-1.4461327508305976e-05 0.0
-1.4188408943898127e-05 0.0
-1.3917551069069775e-05 0.0
-1.36488718830651e-05 0.0
-1.3382325047232016e-05 0.0
-1.311781137363568e-05 0.0
-1.2855437994797477e-05 0.0
-1.2595191618017073e-05 0.0
-1.233699059630815e-05 0.0
-1.2080724600547063e-05 0.0
-1.1826515856546232e-05 0.0
-1.1574350309887333e-05 0.0
-1.132399622326589e-05 0.0
-1.1075683714854044e-05 0.0
-1.0829203474466003e-05 0.0
-1.058456374863098e-05 0.0
-1.0341822914801892e-05 0.0
-1.0100863710179632e-05 0.0
-9.86175204594865e-06 0.0
-9.624379898930488e-06 0.0
-9.388682477972377e-06 0.0
-9.154788770661477e-06 0.0
-8.922642929912609e-06 0.0
-8.692199237242973e-06 0.0
-8.463483935939909e-06 0.0
-8.236448681617781e-06 0.0
-8.011078313372558e-06 0.0
-7.787450750986844e-06 0.0
-7.565550723072403e-06 0.0
-7.345423010935525e-06 0.0
-7.126480065512711e-06 0.0
-6.9095134523974395e-06 0.0
-6.694314163763726e-06 0.0
-6.480838519901177e-06 0.0
-6.269091978126661e-06 0.0
-6.059101572490909e-06 0.0
-5.850845089751267e-06 0.0
-5.644331105032973e-06 0.0
-5.439623249417542e-06 0.0
-5.236533313250208e-06 0.0
-5.035289644874804e-06 0.0
-4.8359387280833595e-06 0.0
-4.638290668224403e-06 0.0
-4.442369395556675e-06 0.0
-4.248366649475815e-06 0.0
-4.056054225185195e-06 0.0
-3.865489817382496e-06 0.0
-3.6766414235059494e-06 0.0
-3.4895409316353418e-06 0.0
-3.304074723425727e-06 0.0
-3.120323620570583e-06 0.0
-2.9382902467494864e-06 0.0
-2.75778620887276e-06 0.0
-2.5788665834318746e-06 0.0
-2.4015164059938906e-06 0.0
-2.2256427018574537e-06 0.0
-2.0512640118109766e-06 0.0
-1.8783226471317324e-06 0.0
-1.7067507969911447e-06 0.0
-1.5364915650413592e-06 0.0
-1.367641556754232e-06 0.0
-1.2000060873590595e-06 0.0
-1.0335794692260804e-06 0.0
-8.683909170465369e-07 0.0
-7.044159092167723e-07 0.0
-5.415395094692686e-07 0.0
-3.797590099457097e-07 0.0
-2.1908890739475964e-07 0.0
-5.953605091848848e-08 0.0
9.900730670033026e-08 0.0
2.5649016200743043e-07 0.0
4.129744043189179e-07 0.0
5.684588424147189e-07 0.0
7.228037625908892e-07 0.0
8.760184032329072e-07 0.0
1.028159082987651e-06 0.0
1.1791237587547678e-06 0.0
1.3289202906577766e-06 0.0
1.4775730917105033e-06 0.0
1.6249646560269435e-06 0.0
1.7711312684385513e-06 0.0
1.9159500239529528e-06 0.0
2.0593453313477326e-06 0.0
2.201324297570308e-06 0.0
2.341943751722766e-06 0.0
2.4808912724129005e-06 0.0
2.6182139868209417e-06 0.0
2.7538582663547e-06 0.0
2.8878363225722465e-06 0.0
3.020094743275022e-06 0.0
3.1504941984049475e-06 0.0
3.279012274053423e-06 0.0
3.4056572752338086e-06 0.0
3.53032473830006e-06 0.0
3.6528647310873455e-06 0.0
3.773468960368438e-06 0.0
3.8918712768559975e-06 0.0
4.008142826587579e-06 0.0
4.12221320450978e-06 0.0
4.234101342145194e-06 0.0
4.343968713390178e-06 0.0
4.451467323805238e-06 0.0
4.556688919758397e-06 0.0
4.659628437696691e-06 0.0
4.760369057424568e-06 0.0
4.858944768933735e-06 0.0
4.955449127315904e-06 0.0
5.049609387518386e-06 0.0
5.141652730577223e-06 0.0
5.231636566934615e-06 0.0
5.319438815401791e-06 0.0
5.405228208994708e-06 0.0
5.4890836582821716e-06 0.0
5.57097564578659e-06 0.0
5.650962558974783e-06 0.0
5.729083747437731e-06 0.0
5.805254516929958e-06 0.0
5.8797687926484066e-06 0.0
5.952557970971416e-06 0.0
6.023658142361174e-06 0.0
6.093118905569808e-06 0.0
6.160896535332631e-06 0.0
6.227159978214826e-06 0.0
6.291994794307912e-06 0.0
6.355506716605041e-06 0.0
6.4175399477968625e-06 0.0
6.478037692421486e-06 0.0
6.537200662400546e-06 0.0
6.595224743000029e-06 0.0
6.651959127401783e-06 0.0
6.707500907206691e-06 0.0
6.761813108332186e-06 0.0
6.81494849228992e-06 0.0
6.866854668859189e-06 0.0
6.917559898436713e-06 0.0
6.967179907051078e-06 0.0
7.015543337882764e-06 0.0
7.06274148488455e-06 0.0
7.108738315022323e-06 0.0
7.153612841267751e-06 0.0
7.1973543197335855e-06 0.0
7.239933304481981e-06 0.0
7.281282835269357e-06 0.0
7.3213441843119985e-06 0.0
7.360350220270239e-06 0.0
7.398073333685211e-06 0.0
7.434531591467061e-06 0.0
7.469754596414235e-06 0.0
7.503576919223236e-06 0.0
7.5362704664537805e-06 0.0
7.567680366441674e-06 0.0
7.5977370835740165e-06 0.0
7.626435730363267e-06 0.0
7.653890492866553e-06 0.0
7.679941357627911e-06 0.0
7.704617453611875e-06 0.0
7.727860507961843e-06 0.0
7.749776264333607e-06 0.0
7.770436142009278e-06 0.0
7.789565548850133e-06 0.0
7.824306630959076e-06 0.0
7.841085501962659e-06 0.0
7.857440206165586e-06 0.0
7.872992419001046e-06 0.0
7.887264603263118e-06 0.0
7.899813947991515e-06 0.0
7.910034403695688e-06 0.0
7.917201565322932e-06 0.0
7.920624877278055e-06 0.0
7.919497852894596e-06 0.0
7.912939690979834e-06 0.0
7.900384034712324e-06 0.0
7.880677622656912e-06 0.0
7.85357912958726e-06 0.0
7.818281032318375e-06 0.0
7.774015772665431e-06 0.0
7.719590749388149e-06 0.0
7.654636798895302e-06 0.0
7.57686832204806e-06 0.0
7.484438983046469e-06 0.0
7.372405954250844e-06 0.0
7.233955748622772e-06 0.0
7.059380541263592e-06 0.0
6.845378525533905e-06 0.0
6.580997979366544e-06 0.0
6.26748802277532e-06 0.0
5.907475978859984e-06 0.0
5.5125144319180275e-06 0.0
5.093919242800353e-06 0.0
4.6532279579197095e-06 0.0
4.176870144916189e-06 0.0
3.640945317118996e-06 0.0
3.025637618643957e-06 0.0
2.3431861879915756e-06 0.0
1.643040897677593e-06 0.0
1.0115921620944174e-06 0.0
5.259289594804893e-07 0.0
2.2455726264552676e-07 0.0
7.888335203243605e-08 0.0
2.108300468496041e-08 0.0
3.843811384357176e-09 0.0
3.822202799259891e-10 0.0
3.669835407789544e-11 0.0
-1.6585476608536135e-13 0.0
1.4070525228704405e-13 0.0
-4.429420064405096e-15 0.0
-6.475669351477872e-15 0.0
6.36097960766028e-16 0.0
1.1605211423978409e-15 0.0
7.35700566730311e-16 0.0
9.234666524619482e-17 0.0
1.1481129687066755e-16 0.0
5.978086394199766e-17 0.0
-5.802816226195684e-17 0.0
-1.6671902312786455e-16 0.0
-2.6535446893659794e-16 0.0
-3.063222117079355e-16 0.0
-2.396615341334594e-16 0.0
8.94199081778565e-17 0.0
4.583434790547592e-16 0.0
2.0802003828586318e-16 0.0
2.32645047072818e-16 0.0
5.234798150373295e-16 0.0
-1.0641230464850403e-16 0.0
-2.6356702060334553e-16 0.0
-4.60017226093991e-16 0.0
-2.474216974558232e-16 0.0
2.3510204455749823e-16 0.0
-3.841305739359859e-17 0.0
-2.661047703762481e-16 0.0
3.9285034048786634e-16 0.0
8.087524092872501e-16 0.0
-1.6076150931630547e-15 0.0
3.6376034416113764e-16 0.0
1.883992103808467e-15 0.0
-1.4054733905524996e-15 0.0
-1.794661372514323e-16 0.0
7.774686007087872e-16 0.0
-1.2053874178933625e-15 0.0
0.0 0.00923416528726009
0.0 0.02210978593046059
0.0 0.04006285207146542
0.0 0.06509563926312352
-1.6341482191129798e-15 0.1
-2.3932584371482695e-15 0.1
2.722014266088541e-14 0.1
-2.890170883332802e-14 0.1
0.0 0.09234095951659922
0.0 0.0852677944370347
0.0 0.07873568783498724
0.0 0.07270325358165697
0.0 0.06713226878992593
0.0 0.06198743331092526
0.0 0.057236152337959624
0.0 0.052848316929522104
0.0 0.04879612844994555
0.0 0.045053910657849125
0.0 0.041597952827119394
0.0 0.038406357242572256
0.0 0.035458901718227936
0.0 0.0327369108733331
0.0 0.030223137736033908
0.0 0.027901654838207963
0.0 0.025757753001962883
0.0 0.023777848352117468
0.0 0.02194939580779703
0.0 0.020260810255918256
0.0 0.018701392223677185
0.0 0.017261261595083947
0.0 0.01593129333641956
0.0 0.014703060382345213
0.0 0.013568780771868539
0.0 0.012521267666637128
0.0 0.011553882415619835
0.0 0.010660504741840786
0.0 0.009835442245575105
0.0 0.009073562693249979
0.0 0.008369647572136233
0.0 0.007720275414992569
0.0 0.007125867333752622
0.0 0.006579995339965423
0.0 0.006079574476777078
0.0 0.005621181738906047
0.0 0.00520140899392851
0.0 0.004818623193885084
0.0 0.0044709126041231366
0.0 0.0041544514653167495
0.0 0.003867090962275263
0.0 0.003606493550506327
0.0 0.003371269836130857
0.0 0.0031588079351790514
0.0 0.0029684898273114823
0.0 0.0027981505172955615
0.0 0.0026460623899968267
0.0 0.0025120700746503266
0.0 0.0023939098645920083
0.0 0.0022907102130382954
0.0 0.0022022192082969357
0.0 0.002126221413132919
0.0 0.0020618428259617265
0.0 0.0020083160144435553
0.0 0.0019636918580935893
0.0 0.0019278388603316825
0.0 0.0018991547903109644
0.0 0.0018771401093629816
0.0 0.0018604789368799031
0.0 0.001848171815617766
0.0 0.0018390812577543526
0.0 0.0018326392179992335
0.0 0.0018285135150627647
0.0 0.0018250422004062953
0.0 0.001823206469765595
0.0 0.0018208830536724828
0.0 0.0018192413395409308
0.0 0.001817773700801599
0.0 0.0018162608912597456
0.0 0.0018146379194002573
0.0 0.0018126754760920195
0.0 0.0018106035422537773
0.0 0.001808320432948681
0.0 0.0018059261285648168
0.0 0.0018033673242999412
0.0 0.0018008048707171835
0.0 0.0017981894651993336
0.0 0.001795569288409407
0.0 0.0017929601137339764
0.0 0.0017902848699441725
0.0 0.0017876910492498634
0.0 0.0017852211580845696
0.0 0.0017828795509036107
3.1448542094003226e-06 0.004930151155556064
6.24344260139459e-05 0.00281042797002435
0.00010658970391658433 0.0017226345235018955
0.0001474719215093435 0.0013784271516835303
2.865993738255209e-05 0.0014129299098186144
1.3846973358635816e-05 0.002261860397368048
0.0001058443113310394 0.001507925796966065
1.5605512250819484e-05 0.001279617408209664
1.9824062262370913e-05 0.0008686377434363882