# vtk DataFile Version 3.0
Some data
ASCII
DATASET UNSTRUCTURED_GRID
POINTS 7930 float
0.0 0.0 0.0
0.0 10.0 0.0
10.0 10.0 0.0
10.0 0.0 0.0
0.5 0.0 0.0
0.0009999999999981016 0.0 0.0
0.001999999999996203 0.0 0.0
0.002999999999994305 0.0 0.0
0.003999999999992409 0.0 0.0
0.004999999999990531 0.0 0.0
0.005999999999988653 0.0 0.0
0.006999999999986775 0.0 0.0
0.007999999999984898 0.0 0.0
0.008999999999983018 0.0 0.0
0.009999999999981142 0.0 0.0
0.01099999999997926 0.0 0.0
0.01199999999997736 0.0 0.0
0.0129999999999754 0.0 0.0
0.01399999999997343 0.0 0.0
0.01499999999997147 0.0 0.0
0.01599999999996944 0.0 0.0
0.0169999999999673 0.0 0.0
0.01799999999996516 0.0 0.0
0.01899999999996302 0.0 0.0
0.01999999999996084 0.0 0.0
0.02099999999995862 0.0 0.0
0.02199999999995639 0.0 0.0
0.02299999999995417 0.0 0.0
0.02399999999995195 0.0 0.0
0.02499999999994972 0.0 0.0
0.0259999999999475 0.0 0.0
0.02699999999994527 0.0 0.0
0.02799999999994315 0.0 0.0
0.0289999999999411 0.0 0.0
0.02999999999993905 0.0 0.0
0.030999999999937 0.0 0.0
0.03199999999993521 0.0 0.0
0.0329999999999335 0.0 0.0
0.0339999999999318 0.0 0.0
0.03499999999993009 0.0 0.0
0.03599999999992853 0.0 0.0
0.036999999999927 0.0 0.0
0.03799999999992547 0.0 0.0
0.03899999999992394 0.0 0.0
0.03999999999992241 0.0 0.0
0.04099999999992088 0.0 0.0
0.04199999999991934 0.0 0.0
0.04299999999991782 0.0 0.0
0.04399999999991629 0.0 0.0
0.04499999999991475 0.0 0.0
0.04599999999991322 0.0 0.0
0.0469999999999117 0.0 0.0
0.04799999999991016 0.0 0.0
0.04899999999990863 0.0 0.0
0.0499999999999071 0.0 0.0
0.05099999999990557 0.0 0.0
0.05199999999990404 0.0 0.0
0.05299999999990251 0.0 0.0
0.05399999999990097 0.0 0.0
0.05499999999989943 0.0 0.0
0.05599999999989791 0.0 0.0
0.05699999999989638 0.0 0.0
0.05799999999989484 0.0 0.0
0.05899999999989317 0.0 0.0
0.05999999999989129 0.0 0.0
0.06099999999988941 0.0 0.0
0.06199999999988753 0.0 0.0
0.06299999999988531 0.0 0.0
0.06399999999988273 0.0 0.0
0.06499999999988015 0.0 0.0
0.06599999999987759 0.0 0.0
0.0669999999998748 0.0 0.0
0.06799999999987189 0.0 0.0
0.06899999999986897 0.0 0.0
0.06999999999986604 0.0 0.0
0.07099999999986313 0.0 0.0
0.0719999999998602 0.0 0.0
0.07299999999985729 0.0 0.0
0.07399999999985438 0.0 0.0
0.07499999999985145 0.0 0.0
0.07599999999984854 0.0 0.0
0.07699999999984562 0.0 0.0
0.0779999999998427 0.0 0.0
0.07899999999983978 0.0 0.0
0.07999999999983685 0.0 0.0
0.08099999999983394 0.0 0.0
0.08199999999983103 0.0 0.0
0.0829999999998281 0.0 0.0
0.08399999999982519 0.0 0.0
0.08499999999982226 0.0 0.0
0.08599999999981935 0.0 0.0
0.08699999999981643 0.0 0.0
0.0879999999998135 0.0 0.0
0.08899999999981059 0.0 0.0
0.08999999999980766 0.0 0.0
0.09099999999980475 0.0 0.0
0.09199999999980184 0.0 0.0
0.09299999999979891 0.0 0.0
0.093999999999796 0.0 0.0
0.09499999999979307 0.0 0.0
0.09599999999979016 0.0 0.0
0.09699999999978724 0.0 0.0
0.09799999999978432 0.0 0.0
0.0989999999997814 0.0 0.0
0.09999999999977847 0.0 0.0
0.1009999999997756 0.0 0.0
0.1019999999997726 0.0 0.0
0.1029999999997697 0.0 0.0
0.1039999999997668 0.0 0.0
0.1049999999997639 0.0 0.0
0.105999999999761 0.0 0.0
0.106999999999758 0.0 0.0
0.1079999999997551 0.0 0.0
0.1089999999997522 0.0 0.0
0.1099999999997493 0.0 0.0
0.1109999999997464 0.0 0.0
0.1119999999997434 0.0 0.0
0.1129999999997405 0.0 0.0
0.1139999999997376 0.0 0.0
0.1149999999997347 0.0 0.0
0.1159999999997318 0.0 0.0
0.1169999999997288 0.0 0.0
0.1179999999997259 0.0 0.0
0.118999999999723 0.0 0.0
0.1199999999997201 0.0 0.0
0.1209999999997172 0.0 0.0
0.1219999999997143 0.0 0.0
0.1229999999997113 0.0 0.0
0.1239999999997084 0.0 0.0
0.1249999999997055 0.0 0.0
0.1259999999997026 0.0 0.0
0.1269999999996997 0.0 0.0
0.1279999999996967 0.0 0.0
0.1289999999996938 0.0 0.0
0.1299999999996909 0.0 0.0
0.130999999999688 0.0 0.0
0.1319999999996851 0.0 0.0
0.1329999999996822 0.0 0.0
0.1339999999996792 0.0 0.0
0.1349999999996764 0.0 0.0
0.1359999999996734 0.0 0.0
0.1369999999996705 0.0 0.0
0.1379999999996676 0.0 0.0
0.1389999999996647 0.0 0.0
0.1399999999996618 0.0 0.0
0.1409999999996588 0.0 0.0
0.1419999999996559 0.0 0.0
0.142999999999653 0.0 0.0
0.1439999999996501 0.0 0.0
0.1449999999996472 0.0 0.0
0.1459999999996442 0.0 0.0
0.1469999999996414 0.0 0.0
0.1479999999996384 0.0 0.0
0.1489999999996355 0.0 0.0
0.1499999999996326 0.0 0.0
0.1509999999996297 0.0 0.0
0.1519999999996268 0.0 0.0
0.1529999999996239 0.0 0.0
0.1539999999996209 0.0 0.0
0.154999999999618 0.0 0.0
0.1559999999996151 0.0 0.0
0.1569999999996122 0.0 0.0
0.1579999999996093 0.0 0.0
0.1589999999996064 0.0 0.0
0.1599999999996035 0.0 0.0
0.1609999999996005 0.0 0.0
0.1619999999995976 0.0 0.0
0.1629999999995947 0.0 0.0
0.1639999999995918 0.0 0.0
0.1649999999995889 0.0 0.0
0.165999999999586 0.0 0.0
0.1669999999995831 0.0 0.0
0.1679999999995801 0.0 0.0
0.1689999999995772 0.0 0.0
0.1699999999995743 0.0 0.0
0.1709999999995714 0.0 0.0
0.1719999999995685 0.0 0.0
0.1729999999995655 0.0 0.0
0.1739999999995626 0.0 0.0
0.1749999999995597 0.0 0.0
0.1759999999995568 0.0 0.0
0.1769999999995539 0.0 0.0
0.177999999999551 0.0 0.0
0.178999999999548 0.0 0.0
0.1799999999995451 0.0 0.0
0.1809999999995422 0.0 0.0
0.1819999999995393 0.0 0.0
0.1829999999995364 0.0 0.0
0.1839999999995335 0.0 0.0
0.1849999999995305 0.0 0.0
0.1859999999995277 0.0 0.0
0.1869999999995247 0.0 0.0
0.1879999999995218 0.0 0.0
0.1889999999995189 0.0 0.0
0.189999999999516 0.0 0.0
0.1909999999995131 0.0 0.0
0.1919999999995101 0.0 0.0
0.1929999999995072 0.0 0.0
0.1939999999995043 0.0 0.0
0.1949999999995014 0.0 0.0
0.1959999999994985 0.0 0.0
0.1969999999994956 0.0 0.0
0.1979999999994927 0.0 0.0
0.1989999999994897 0.0 0.0
0.1999999999994868 0.0 0.0
0.2009999999994839 0.0 0.0
0.201999999999481 0.0 0.0
0.2029999999994781 0.0 0.0
0.2039999999994752 0.0 0.0
0.2049999999994722 0.0 0.0
0.2059999999994693 0.0 0.0
0.2069999999994664 0.0 0.0
0.2079999999994635 0.0 0.0
0.2089999999994606 0.0 0.0
0.2099999999994577 0.0 0.0
0.2109999999994548 0.0 0.0
0.2119999999994518 0.0 0.0
0.2129999999994489 0.0 0.0
0.213999999999446 0.0 0.0
0.2149999999994431 0.0 0.0
0.2159999999994402 0.0 0.0
0.2169999999994373 0.0 0.0
0.2179999999994343 0.0 0.0
0.2189999999994314 0.0 0.0
0.2199999999994285 0.0 0.0
0.2209999999994256 0.0 0.0
0.2219999999994227 0.0 0.0
0.2229999999994198 0.0 0.0
0.2239999999994168 0.0 0.0
0.2249999999994139 0.0 0.0
0.225999999999411 0.0 0.0
0.2269999999994081 0.0 0.0
0.2279999999994052 0.0 0.0
0.2289999999994023 0.0 0.0
0.2299999999993994 0.0 0.0
0.2309999999993964 0.0 0.0
0.2319999999993935 0.0 0.0
0.2329999999993906 0.0 0.0
0.2339999999993877 0.0 0.0
0.2349999999993848 0.0 0.0
0.2359999999993818 0.0 0.0
0.236999999999379 0.0 0.0
0.237999999999376 0.0 0.0
0.2389999999993731 0.0 0.0
0.2399999999993702 0.0 0.0
0.2409999999993673 0.0 0.0
0.2419999999993644 0.0 0.0
0.2429999999993615 0.0 0.0
0.2439999999993585 0.0 0.0
0.2449999999993556 0.0 0.0
0.2459999999993527 0.0 0.0
0.246999999999351 0.0 0.0
0.2479999999993495 0.0 0.0
0.248999999999348 0.0 0.0
0.2499999999993464 0.0 0.0
0.2509999999993477 0.0 0.0
0.2519999999993489 0.0 0.0
0.2529999999993502 0.0 0.0
0.2539999999993516 0.0 0.0
0.2549999999993542 0.0 0.0
0.2559999999993569 0.0 0.0
0.2569999999993595 0.0 0.0
0.2579999999993621 0.0 0.0
0.2589999999993647 0.0 0.0
0.2599999999993673 0.0 0.0
0.26099999999937 0.0 0.0
0.2619999999993726 0.0 0.0
0.2629999999993753 0.0 0.0
0.2639999999993779 0.0 0.0
0.2649999999993806 0.0 0.0
0.2659999999993832 0.0 0.0
0.2669999999993858 0.0 0.0
0.2679999999993884 0.0 0.0
0.2689999999993911 0.0 0.0
0.2699999999993937 0.0 0.0
0.2709999999993963 0.0 0.0
0.271999999999399 0.0 0.0
0.2729999999994017 0.0 0.0
0.2739999999994043 0.0 0.0
0.2749999999994069 0.0 0.0
0.2759999999994096 0.0 0.0
0.2769999999994122 0.0 0.0
0.2779999999994148 0.0 0.0
0.2789999999994174 0.0 0.0
0.2799999999994201 0.0 0.0
0.2809999999994228 0.0 0.0
0.2819999999994254 0.0 0.0
0.282999999999428 0.0 0.0
0.2839999999994306 0.0 0.0
0.2849999999994333 0.0 0.0
0.2859999999994359 0.0 0.0
0.2869999999994385 0.0 0.0
0.2879999999994411 0.0 0.0
0.2889999999994439 0.0 0.0
0.2899999999994465 0.0 0.0
0.2909999999994491 0.0 0.0
0.2919999999994517 0.0 0.0
0.2929999999994544 0.0 0.0
0.293999999999457 0.0 0.0
0.2949999999994596 0.0 0.0
0.2959999999994622 0.0 0.0
0.2969999999994649 0.0 0.0
0.2979999999994676 0.0 0.0
0.2989999999994702 0.0 0.0
0.2999999999994728 0.0 0.0
0.3009999999994754 0.0 0.0
0.3019999999994781 0.0 0.0
0.3029999999994807 0.0 0.0
0.3039999999994834 0.0 0.0
0.304999999999486 0.0 0.0
0.3059999999994886 0.0 0.0
0.3069999999994913 0.0 0.0
0.3079999999994939 0.0 0.0
0.3089999999994965 0.0 0.0
0.3099999999994992 0.0 0.0
0.3109999999995018 0.0 0.0
0.3119999999995045 0.0 0.0
0.3129999999995071 0.0 0.0
0.3139999999995097 0.0 0.0
0.3149999999995123 0.0 0.0
0.315999999999515 0.0 0.0
0.3169999999995176 0.0 0.0
0.3179999999995203 0.0 0.0
0.3189999999995229 0.0 0.0
0.3199999999995256 0.0 0.0
0.3209999999995282 0.0 0.0
0.3219999999995308 0.0 0.0
0.3229999999995334 0.0 0.0
0.323999999999536 0.0 0.0
0.3249999999995387 0.0 0.0
0.3259999999995414 0.0 0.0
0.326999999999544 0.0 0.0
0.3279999999995466 0.0 0.0
0.3289999999995493 0.0 0.0
0.3299999999995519 0.0 0.0
0.3309999999995545 0.0 0.0
0.3319999999995571 0.0 0.0
0.3329999999995598 0.0 0.0
0.3339999999995625 0.0 0.0
0.3349999999995651 0.0 0.0
0.3359999999995677 0.0 0.0
0.3369999999995703 0.0 0.0
0.337999999999573 0.0 0.0
0.3389999999995756 0.0 0.0
0.3399999999995783 0.0 0.0
0.3409999999995809 0.0 0.0
0.3419999999995835 0.0 0.0
0.3429999999995862 0.0 0.0
0.3439999999995888 0.0 0.0
0.3449999999995914 0.0 0.0
0.345999999999594 0.0 0.0
0.3469999999995967 0.0 0.0
0.3479999999995994 0.0 0.0
0.348999999999602 0.0 0.0
0.3499999999996046 0.0 0.0
0.3509999999996072 0.0 0.0
0.3519999999996099 0.0 0.0
0.3529999999996125 0.0 0.0
0.3539999999996151 0.0 0.0
0.3549999999996178 0.0 0.0
0.3559999999996205 0.0 0.0
0.3569999999996231 0.0 0.0
0.3579999999996257 0.0 0.0
0.3589999999996283 0.0 0.0
0.359999999999631 0.0 0.0
0.3609999999996336 0.0 0.0
0.3619999999996362 0.0 0.0
[...]
POINT_DATA 7930
SCALARS Disp float 2
LOOKUP_TABLE default
0.0 0.00047721061225466693
0.0 0.1
0.0 0.1
0.0 0.0
1.557613501663866e-17 0.0
-6.85096744148392e-06 0.00047661443857143426
-1.3566464653512302e-05 0.0004751648699560267
-2.0384200192654588e-05 0.0004735323626446956
-2.771737169206247e-05 0.0004704445293243901
-3.44935886413002e-05 0.0004650149347238189
-4.084693934037283e-05 0.0004588943636620544
-4.745496308305339e-05 0.00045396329867718313
-5.461658297679178e-05 0.00044775268080713684
-6.181335131155495e-05 0.00043789422901523254
-6.828978436229257e-05 0.00042695865365805554
-7.48484622361906e-05 0.00041718591545094534
-8.253284682127451e-05 0.0004059373565256196
-8.966670978436363e-05 0.00039039047350714995
-9.569689759693196e-05 0.0003730153645628907
-0.00010202572176036854 0.0003566629427066068
-0.00010868644836788066 0.00033878114242041413
-0.00011607133979258413 0.0003153181530893357
-0.00012203247497243753 0.00028801680485186326
-0.00012817819566937524 0.0002594767364722635
-0.0001345776914871033 0.0002274114544428471
-0.00014195036324635005 0.0001809756798770348
-0.00014400562216591137 0.00011708031508977899
-0.00013069855270440904 0.0
-0.00011000884280355567 0.0
-9.730486077095124e-05 0.0
-8.742143093528576e-05 0.0
-8.033452424583848e-05 0.0
-7.441374232087596e-05 0.0
-6.9488947464984e-05 0.0
-6.514473411944056e-05 0.0
-6.134460218963067e-05 0.0
-5.7915554739698944e-05 0.0
-5.4838222538608064e-05 0.0
-5.20422765713616e-05 0.0
-4.944221113499859e-05 0.0
-4.704307136292906e-05 0.0
-4.483258319012778e-05 0.0
-4.2768810096094184e-05 0.0
-4.0857634444640946e-05 0.0
-3.907060545877495e-05 0.0
-3.740197767717027e-05 0.0
-3.583550282587405e-05 0.0
-3.4350991559388594e-05 0.0
-3.294683239625865e-05 0.0
-3.162578514484306e-05 0.0
-3.0372489542320628e-05 0.0
-2.918879538260982e-05 0.0
-2.806084950512413e-05 0.0
-2.6983180914923334e-05 0.0
-2.5948764410657083e-05 0.0
-2.495944230652487e-05 0.0
-2.401316314081305e-05 0.0
-2.3104615421267686e-05 0.0
-2.220931424496371e-05 0.0
-2.1358608290064438e-05 0.0
-2.053995103077012e-05 0.0
-1.9750805083392824e-05 0.0
-1.8986767723115143e-05 0.0
-1.8250271733529307e-05 0.0
-1.7537993896615537e-05 0.0
-1.6846867558688078e-05 0.0
-1.6179231680235013e-05 0.0
-1.553360497211226e-05 0.0
-1.4908092548040297e-05 0.0
-1.4304473373370225e-05 0.0
-1.3721803672082537e-05 0.0
-1.3157502092614267e-05 0.0
-1.261165204954776e-05 0.0
-1.2085015306256358e-05 0.0
-1.1577065397436423e-05 0.0
-1.1085121351947381e-05 0.0
-1.0609412321675915e-05 0.0
-1.0149105769707209e-05 0.0
-9.702637362530834e-06 0.0
-9.270963851055609e-06 0.0
-8.853326141198253e-06 0.0
-8.448724280861204e-06 0.0
-8.056477860403564e-06 0.0
-7.675351173590045e-06 0.0
-7.305847864666915e-06 0.0
-6.947039675401018e-06 0.0
-6.597974034557718e-06 0.0
-6.258393464002355e-06 0.0
-5.928468437681575e-06 0.0
-5.6064613133428995e-06 0.0
-5.292570885009085e-06 0.0
-4.987108035174156e-06 0.0
-4.689482015300284e-06 0.0
-4.3996459512660316e-06 0.0
-4.1167271514384385e-06 0.0
-3.84110526659314e-06 0.0
-3.5722779312246583e-06 0.0
-3.3100138367682545e-06 0.0
-3.05432863129608e-06 0.0
-2.8053386784601155e-06 0.0
-2.5630174327770722e-06 0.0
-2.3267434170035918e-06 0.0
-2.0970910869071217e-06 0.0
-1.873610599681947e-06 0.0
-1.6560045836791736e-06 0.0
-1.4449504073864418e-06 0.0
-1.240188535650181e-06 0.0
-1.041744547506637e-06 0.0
-8.497258302810745e-07 0.0
-6.643218283103621e-07 0.0
-4.846283257185791e-07 0.0
-3.1200224187625523e-07 0.0
-1.4584445479954402e-07 0.0
1.4940891657503667e-08 0.0
1.6907939730324622e-07 0.0
3.1660980530095314e-07 0.0
4.5790617389588943e-07 0.0
5.929799290606769e-07 0.0
7.217570301237843e-07 0.0
8.4395011220535e-07 0.0
9.599109357818219e-07 0.0
1.0695983302605318e-06 0.0
1.1731429546431026e-06 0.0
1.2700277189551924e-06 0.0
1.3603906395906468e-06 0.0
1.4464797616605614e-06 0.0
1.5260026046602524e-06 0.0
1.5992602501178306e-06 0.0
1.666677897580688e-06 0.0
1.7290412984883e-06 0.0
1.7853463687649285e-06 0.0
1.835730672849679e-06 0.0
1.8812375250324125e-06 0.0
1.921446600816271e-06 0.0
1.956754748488244e-06 0.0
1.9868374547804196e-06 0.0
2.0121112968700274e-06 0.0
2.0326120759098113e-06 0.0
2.048471327690732e-06 0.0
2.0601482592722442e-06 0.0
2.067870161036533e-06 0.0
2.0712462147449154e-06 0.0
2.0708612239677127e-06 0.0
2.066859607145379e-06 0.0
2.0593732348184916e-06 0.0
2.048547019262376e-06 0.0
2.034598184954752e-06 0.0
2.0176747838083437e-06 0.0
1.9980412595211553e-06 0.0
1.9758509452677986e-06 0.0
1.9511205371493396e-06 0.0
1.9241446821459345e-06 0.0
1.8952986963466902e-06 0.0
1.864614825914731e-06 0.0
1.8320965486639393e-06 0.0
1.7980666734353033e-06 0.0
1.762623954658787e-06 0.0
1.7259740284368224e-06 0.0
1.6882980854910836e-06 0.0
1.6496650464641814e-06 0.0
1.6102838839680479e-06 0.0
1.570084712964998e-06 0.0
1.529550464771303e-06 0.0
1.4885364352459711e-06 0.0
1.4472218598403698e-06 0.0
1.4057450007062645e-06 0.0
1.364201077806308e-06 0.0
1.322725126722634e-06 0.0
1.2813523066691619e-06 0.0
1.24019907272564e-06 0.0
1.1993460568288182e-06 0.0
1.158868478415124e-06 0.0
1.1188311746782957e-06 0.0
1.0792976201379078e-06 0.0
1.0403334725160477e-06 0.0
1.0019845255500477e-06 0.0
9.643261971036788e-07 0.0
9.273845817087819e-07 0.0
8.911704603202882e-07 0.0
8.55742583559137e-07 0.0
8.211432745418492e-07 0.0
7.873818683445383e-07 0.0
7.544547530756895e-07 0.0
7.224160016006938e-07 0.0
6.912784291051903e-07 0.0
6.6101283078515e-07 0.0
6.316756707035763e-07 0.0
6.032749624082956e-07 0.0
5.757543682866938e-07 0.0
5.491040253079634e-07 0.0
5.233871950195012e-07 0.0
4.985536452115167e-07 0.0
4.746119307568168e-07 0.0
4.5157689505889196e-07 0.0
4.2937214824853344e-07 0.0
4.0800907475527163e-07 0.0
3.8749559875026977e-07 0.0
3.677992546353065e-07 0.0
3.4889444566121115e-07 0.0
3.3081080899269175e-07 0.0
3.134838742966453e-07 0.0
2.968749477842828e-07 0.0
2.810236701800609e-07 0.0
2.658539652729241e-07 0.0
2.513855261125101e-07 0.0
2.375747515467215e-07 0.0
2.2438179863692445e-07 0.0
2.1183527532957248e-07 0.0
1.9990383791102918e-07 0.0
1.8853739959431697e-07 0.0
1.7773817776953844e-07 0.0
1.674787999871186e-07 0.0
1.577277486803416e-07 0.0
1.484688152502374e-07 0.0
1.3969337391252967e-07 0.0
1.3138444505326276e-07 0.0
1.2350342382472545e-07 0.0
1.1604112826294533e-07 0.0
1.0898700055388253e-07 0.0
1.0230127012955682e-07 0.0
9.599386094870991e-08 0.0
9.003057045532592e-08 0.0
8.440395675800971e-08 0.0
7.909877583151367e-08 0.0
7.409152833996007e-08 0.0
6.937721526092871e-08 0.0
6.493506258144843e-08 0.0
6.07487990763346e-08 0.0
5.680928068838887e-08 0.0
5.310257625867702e-08 0.0
4.962471633154944e-08 0.0
4.635451803939602e-08 0.0
4.32815993302833e-08 0.0
4.03968209155973e-08 0.0
3.768220596127975e-08 0.0
3.514163833221049e-08 0.0
3.276389440291698e-08 0.0
3.053135575585243e-08 0.0
2.844212148578005e-08 0.0
2.6488573136570523e-08 0.0
2.465796536224448e-08 0.0
2.2944502416868557e-08 0.0
2.1344431645290436e-08 0.0
1.9848474945868817e-08 0.0
1.8449645200395315e-08 0.0
1.7144480400923708e-08 0.0
1.592731994138976e-08 0.0
1.47880026586247e-08 0.0
1.3726555520980445e-08 0.0
1.2738840601719683e-08 0.0
1.1815799094423969e-08 0.0
1.0958025821133528e-08 0.0
1.0158866902490144e-08 0.0
9.414717505300462e-09 0.0
8.723157826474558e-09 0.0
8.078950140813946e-09 0.0
7.479935932394988e-09 0.0
6.924729791370879e-09 0.0
6.407326528871554e-09 0.0
5.926364518159582e-09 0.0
5.479745728333806e-09 0.0
5.0657989204959955e-09 0.0
4.681955628002354e-09 0.0
4.326077876170372e-09 0.0
3.995936269900758e-09 0.0
3.6900220135120688e-09 0.0
3.4065435056961613e-09 0.0
3.144351730385758e-09 0.0
2.9013802050706004e-09 0.0
2.6761533239350847e-09 0.0
2.46780297824825e-09 0.0
2.275159199699088e-09 0.0
2.096734014992899e-09 0.0
1.9332008180457244e-09 0.0
1.7796198070135143e-09 0.0
1.6388817521519515e-09 0.0
1.5086778944163933e-09 0.0
1.388599233342646e-09 0.0
1.2777095082508613e-09 0.0
1.1752772902242882e-09 0.0
1.0809127852613693e-09 0.0
9.93888975636003e-10 0.0
9.135510360296561e-10 0.0
8.39545298126329e-10 0.0
7.711526881038702e-10 0.0
7.083331161470214e-10 0.0
6.506272538507858e-10 0.0
5.9732044291927e-10 0.0
5.482669911277681e-10 0.0
5.03069819025058e-10 0.0
4.614854101975633e-10 0.0
4.233063242196331e-10 0.0
3.8816170498315165e-10 0.0
3.5587581889093005e-10 0.0
3.262076859378567e-10 0.0
2.9890182646389134e-10 0.0
2.737548311951679e-10 0.0
2.507746319627132e-10 0.0
2.2964705721597746e-10 0.0
2.1025014258093814e-10 0.0
1.924376670179905e-10 0.0
1.7609670232216117e-10 0.0
1.611115048868156e-10 0.0
1.4736688644677553e-10 0.0
1.3477305437559998e-10 0.0
1.2321519508207507e-10 0.0
1.1263675192289261e-10 0.0
1.0294363613039851e-10 0.0
9.406677359526894e-11 0.0
8.594305087681279e-11 0.0
7.850454520488351e-11 0.0
7.169302513871208e-11 0.0
6.545817642078844e-11 0.0
5.974327040106143e-11 0.0
5.452290812126877e-11 0.0
4.975534320455099e-11 0.0
4.5392964102167135e-11 0.0
4.140086410158499e-11 0.0
3.77526660404714e-11 0.0
3.441629186342796e-11 0.0
3.136782388013881e-11 0.0
2.8592173306041587e-11 0.0
2.6060484818433116e-11 0.0
2.3748259927400237e-11 0.0
2.1627850955157997e-11 0.0
1.9694747256374116e-11 0.0
1.7934370330753324e-11 0.0
1.6321613705776802e-11 0.0
1.4852412963285074e-11 0.0
1.3517239040106703e-11 0.0
1.2294501851588329e-11 0.0
1.1184463878047543e-11 0.0
1.017220525116526e-11 0.0
9.249715485775181e-12 0.0
8.412164814371645e-12 0.0
7.647408747682506e-12 0.0
6.950958469887508e-12 0.0
6.316744674611276e-12 0.0
5.739998556356409e-12 0.0
5.214753426515678e-12 0.0
4.736567530482713e-12 0.0
4.301176800658863e-12 0.0
3.904633840178501e-12 0.0
3.5446657094776517e-12 0.0
3.2172819754189695e-12 0.0
2.91966873511633e-12 0.0
2.648842951585315e-12 0.0
2.4026745925877587e-12 0.0
2.17923294325587e-12 0.0
1.9772391794273094e-12 0.0
1.7926642814433157e-12 0.0
1.6255822626075871e-12 0.0
1.4734606443414174e-12 0.0
1.3348452954300057e-12 0.0
1.2096204997664026e-12 0.0
1.096525185000686e-12 0.0
9.932524330228e-13 0.0
8.997613747675319e-13 0.0
8.147601890209706e-13 0.0
7.377344757345991e-13 0.0
6.683211882074696e-13 0.0
6.04930371100501e-13 0.0
5.475685324719404e-13 0.0
4.955414420877086e-13 0.0
4.482012042863178e-13 0.0
4.054606848508799e-13 0.0
3.6682842967490056e-13 0.0
3.317327508529053e-13 0.0
2.999769610179278e-13 0.0
2.712305438661274e-13 0.0
2.451862315762017e-13 0.0
2.2163794779477918e-13 0.0
2.0033129779403672e-13 0.0
1.8103398733486626e-13 0.0
1.635714496562593e-13 0.0
1.4774460782908985e-13 0.0
1.3345095291453277e-13 0.0
1.2053557685651856e-13 0.0
1.0885261801910408e-13 0.0
9.829511382630365e-14 0.0
8.87469757212237e-14 0.0
8.01349048793589e-14 0.0
7.23451685944332e-14 0.0
6.526125390245801e-14 0.0
5.888302570704718e-14 0.0
5.315619242323478e-14 0.0
4.7953727189255984e-14 0.0
4.32306126635617e-14 0.0
3.899418039340227e-14 0.0
3.5177716358364264e-14 0.0
3.172051005965643e-14 0.0
2.8595891721667103e-14 0.0
2.5778032615048433e-14 0.0
2.3224274988457278e-14 0.0
2.0929306805881366e-14 0.0
1.8868786231924415e-14 0.0
1.7000072334877434e-14 0.0
1.5313479971710828e-14 0.0
1.3794498567757975e-14 0.0
1.241614965084654e-14 0.0
1.1181613898413628e-14 0.0
1.0069478841499568e-14 0.0
9.065194238054199e-15 0.0
8.163046710242963e-15 0.0
7.35082656852791e-15 0.0
6.615849914581847e-15 0.0
5.9535457278868024e-15 0.0
5.357458645208992e-15 0.0
4.821213810501949e-15 0.0
4.338009769501928e-15 0.0
3.902818756006128e-15 0.0
3.5110816712271867e-15 0.0
3.158761381757159e-15 0.0
2.8414692769168702e-15 0.0
2.5559854722078915e-15 0.0
2.298791059364045e-15 0.0
2.066979614631711e-15 0.0
1.8587168835358865e-15 0.0
1.6714757474380571e-15 0.0
1.5030416028616018e-15 0.0
1.351741241718602e-15 0.0
1.2157090447608345e-15 0.0
1.0931779542014025e-15 0.0
9.831483357459722e-16 0.0
8.840838146168896e-16 0.0
7.950751575569891e-16 0.0
7.152159300486543e-16 0.0
6.434553708484871e-16 0.0
5.786406620985094e-16 0.0
5.207327005320001e-16 0.0
4.68681488391784e-16 0.0
4.220217032231303e-16 0.0
3.8000716397185244e-16 0.0
3.42269825064002e-16 0.0
3.083970431686113e-16 0.0
2.7798348072924624e-16 0.0
2.506483251988647e-16 0.0
2.26080636177377e-16 0.0
2.0404119268220152e-16 0.0
1.842980473780691e-16 0.0
1.6658125367420675e-16 0.0
1.5068256785964903e-16 0.0
1.3643812923296357e-16 0.0
1.2366658042157012e-16 0.0
1.1215411654274414e-16 0.0
1.0187027953673426e-16 0.0
9.267074976611727e-17 0.0
8.443717613372934e-17 0.0
7.705155249779731e-17 0.0
7.045229085802957e-17 0.0
6.450969663654318e-17 0.0
5.922409401313074e-17 0.0
5.4489936708494375e-17 0.0
5.024897628202713e-17 0.0
4.6458781726022655e-17 0.0
4.305339188476988e-17 0.0
3.9991155796531393e-17 0.0
3.724665373737295e-17 0.0
3.478598333614808e-17 0.0
3.257446943194631e-17 0.0
3.0597708170733866e-17 0.0
2.881346468950166e-17 0.0
2.72227263295188e-17 0.0
2.578940416132894e-17 0.0
2.4505546796287758e-17 0.0
2.335064898474273e-17 0.0
2.2313572755795313e-17 0.0
2.1375397770440616e-17 0.0
2.053569352597094e-17 0.0
1.9788774331662166e-17 0.0
1.912718714216127e-17 0.0
1.8539981150560677e-17 0.0
1.8019549164108972e-17 0.0
1.7566501847037558e-17 0.0
1.7171067106268277e-17 0.0
1.6823493812218105e-17 0.0
1.6530275565281834e-17 0.0
1.628206243828485e-17 0.0
1.606795831692114e-17 0.0
1.5894016586288217e-17 0.0
1.5751649174426863e-17 0.0
1.563669813377026e-17 0.0
1.5546715915902644e-17 0.0
1.547333093771206e-17 0.0
1.541426034529727e-17 0.0
1.5366438343672817e-17 0.0
1.5337300283159806e-17 0.0
1.5327670326133468e-17 0.0
1.5329880323645095e-17 0.0
1.5337340121758688e-17 0.0
1.535150657071199e-17 0.0
1.5370189955315584e-17 0.0
1.539248793803199e-17 0.0
1.5414335906263372e-17 0.0
1.5438324756318014e-17 0.0
1.5463071911551865e-17 0.0
1.5486206634807748e-17 0.0
1.550868218125613e-17 0.0
1.5533005126666953e-17 0.0
1.5549943570674083e-17 0.0
1.556324151194616e-17 0.0
1.5571742108201397e-17 0.0
1.5577669287327505e-17 0.0
1.557952464981488e-17 0.0
1.556828326543528e-17 0.0
1.555855616006835e-17 0.0
1.5547729049846166e-17 0.0
1.5535433977604282e-17 0.0
1.5524228041046856e-17 0.0
1.5501603316732594e-17 0.0
1.5465616271831663e-17 0.0
1.5418639361791628e-17 0.0
1.535122973632589e-17 0.0
1.528144553718165e-17 0.0
1.520930312301649e-17 0.0
1.5137603396579993e-17 0.0
1.5068548621079288e-17 0.0
1.4979118963636448e-17 0.0
1.4866166443358854e-17 0.0
1.468476816772043e-17 0.0
1.4488660761634514e-17 0.0
1.430539448764206e-17 0.0
1.407549481398877e-17 0.0
1.3798950899530232e-17 0.0
1.343082226485416e-17 0.0
1.3167753310229022e-17 0.0
1.3186106211662925e-17 0.0
1.3352252107725535e-17 0.0
1.3217646650021426e-17 0.0
1.316784842061195e-17 0.0
1.3984047391898846e-17 0.0
1.5462556283967548e-17 0.0
1.6471764049590334e-17 0.0
1.6509151238826242e-17 0.0
1.6621837715157108e-17 0.0
1.5810142286867136e-17 0.0
1.5397357569893886e-17 0.0
1.5687869048354698e-17 0.0
1.8005934559046048e-17 0.0
2.043411603803842e-17 0.0
2.1066632110175637e-17 0.0
2.1326886444701773e-17 0.0
1.9132864891811537e-17 0.0
2.0340982997581356e-17 0.0
2.464230618634072e-17 0.0
2.983788409930308e-17 0.0
2.2238218090373017e-17 0.0
1.6606622413811154e-17 0.0
1.0833060015211334e-17 0.0
2.907841450267548e-17 0.0
4.771863782937464e-17 0.0
2.5584681936494992e-17 0.0
3.573398862853151e-17 0.0
4.492589613532927e-17 0.0
2.5059080822909418e-17 0.0
2.5784506442686606e-17 0.0
4.749182220433166e-17 0.0
4.6394782601776667e-17 0.0
3.170608761311629e-17 0.0
4.920970031826272e-17 0.0
3.075586687954118e-17 0.0
4.762123057248765e-17 0.0
8.013916282908328e-17 0.0
5.997270407264922e-17 0.0
2.992563462059595e-17 0.0
6.810546849060339e-17 0.0
4.7634437022023846e-17 0.0
2.1798333472052584e-17 0.0
6.513877108806738e-17 0.0
5.076164265575956e-17 0.0
2.568522450402914e-17 0.0
4.0340742860962716e-17 0.0
1.9283741284841426e-17 0.0
4.081674791701823e-17 0.0
1.4120376267297497e-17 0.0
1.7189808769609963e-17 0.0
5.442742294099773e-17 0.0
-5.173533640157571e-19 0.0
4.013087429786408e-17 0.0
2.7867070463589975e-17 0.0
-2.2364299442720483e-17 0.0
1.9171444344052926e-17 0.0
-6.119923304343206e-18 0.0
0.0 0.009234165287257177
0.0 0.022109785930449318
0.0 0.040062852071538146
0.0 0.06509563926324641
-3.06528476409319e-17 0.1
-3.794627409286761e-17 0.1
1.6115382567591682e-16 0.1
-2.4326559657948177e-16 0.1
0.0 0.09234095951662545
0.0 0.08526779443703153
0.0 0.0787356878349926
0.0 0.07270325358170229
0.0 0.06713226878993651
0.0 0.06198743331091361
0.0 0.0572361523379468
0.0 0.052848316929518586
0.0 0.048796128449941745
0.0 0.045053910657846384
0.0 0.04159795282712743
0.0 0.03840635724257021
0.0 0.03545890171822171
0.0 0.0327369108733256
0.0 0.03022313773602707
0.0 0.02790165483820256
0.0 0.025757753001960346
0.0 0.023777848352115046
0.0 0.021949395807803078
0.0 0.020260810255894567
0.0 0.018701392223652906
0.0 0.017261261595034303
0.0 0.01593129333668052
0.0 0.01470306037294017
0.0 0.013568780782904325
0.0 0.012521267482861278
0.0 0.011553883413523458
0.0 0.010660499143842928
0.0 0.009835453922831363
0.0 0.009073520329637756
0.0 0.008369870608788913
0.0 0.0077200463033813005
0.0 0.007119930012359829
0.0 0.006565719473503347
0.0 0.006053903138567366
0.0 0.005581237991563782
0.0 0.00514472922603912
0.0 0.004741611057488142
0.0 0.004369329279130004
0.0 0.004025525044341315
0.0 0.003708020011705674
0.0 0.0034148024236057587
0.0 0.0031440144402524743
0.0 0.002893940615918104
0.0 0.0026629994356625044
0.0 0.002449747206424719
0.0 0.002252904900102753
0.0 0.002071447405101397
0.0 0.0019045146424739308
0.0 0.0017514308843956927
0.0 0.001611469927567598
0.0 0.0014836433359152923
0.0 0.0013666566948125477
0.0 0.0012597118176458384
0.0 0.001162460956388423
0.0 0.001074485443193859
0.0 0.0009950060465667653
0.0 0.0009232912887114709
0.0 0.0008586048466323005
0.0 0.0008004291534933427
0.0 0.0007485076193483306
0.0 0.0007027067643279686
0.0 0.0006626242976354472
0.0 0.0006276417627019939
0.0 0.0005977831301021492
0.0 0.0005720492028439999
0.0 0.0005507729894199673
0.0 0.0005335759331677016
0.0 0.0005199499392965256
0.0 0.0005096042893597005
0.0 0.0005017549741377177
0.0 0.0004963382311040144
0.0 0.0004926773911592885
0.0 0.0004903702148990271
0.0 0.0004889148423729932
0.0 0.00048805068449855096
0.0 0.00048740327190175965
0.0 0.00048676722333750575
0.0 0.0004859722824883728
0.0 0.00048466660176579076
0.0 0.0004831245657679704
0.0 0.0004812856866310483
0.0 0.00047934059947289843
6.3650230734555366e-18 0.004927245132661907
-5.663108317190994e-17 0.0027738745973877933
1.4666230454729997e-07 0.0015360664126730838
1.0531063389785679e-05 0.0009108815896375902
8.61586200802078e-12 0.0014042041101580201
1.0735881779895085e-17 0.002259784942604706
2.4083962186967755e-05 0.0005362839553332955
3.913283408761628e-17 0.001286773473408848
9.437325194827795e-07 0.0007830790040603195
7.283134373839584e-09 0.0007701225308880672
1.9809225969575256e-11 0.0007097590409876957
2.4642577015262132e-14 0.0006767768962548641
-2.8311732125075446e-17 0.01497373646140934
2.8382693608910644e-17 0.0006657294860763458
7.5679827912521e-06 0.0004433721600773906
3.1669988984454495e-06 0.00043919518553423085
1.6766603907264306e-17 0.0011704180815624425
3.536286174578999e-05 0.00038744884374848366
7.426062366469881e-07 0.0003918443356193826
6.745857895789961e-08 0.00042325427586216164
3.6259106406335206e-09 0.00040049352897079184
1.4441978210841504e-10 0.0003772773879070674
4.773717653106471e-12 0.00037799227422326574
1.5952999217415196e-17 0.0006414990043901132
1.5279816568871736e-13 0.0003524701498056272
2.498456917479326e-15 0.00039119165164168586
-2.9765608180888203e-17 0.048473971154331386
5.236246003822418e-06 0.0002652649918449323
4.961940560911746e-07 0.00024239722223304123
8.483512924416768e-17 0.000334007530263877
1.609213080561758e-17 0.00039557321739699404
-2.9853260445837904e-17 0.00798949711475717
3.309692910819626e-17 0.0037118346624276017
1.4220893486705124e-06 0.00021995936242987597
2.677482892145912e-06 0.00023046286203532278
2.198482156278343e-06 0.00022193067708263064
1.2392089916965703e-06 0.00020089898064878993
5.301706549283815e-07 0.00019933563107938583
1.523166350678326e-07 0.00022297073751655853