# vtk DataFile Version 3.0
Some data
ASCII
DATASET UNSTRUCTURED_GRID
POINTS 861 float
0.0 0.0 0.0
0.4 0.0 0.0
0.8 0.0 0.0
1.2000000000000002 0.0 0.0
1.6 0.0 0.0
2.0 0.0 0.0
2.4000000000000004 0.0 0.0
2.8000000000000003 0.0 0.0
3.2 0.0 0.0
3.6 0.0 0.0
4.0 0.0 0.0
4.4 0.0 0.0
4.800000000000001 0.0 0.0
5.2 0.0 0.0
5.6000000000000005 0.0 0.0
6.0 0.0 0.0
6.4 0.0 0.0
6.800000000000001 0.0 0.0
7.2 0.0 0.0
7.6000000000000005 0.0 0.0
8.0 0.0 0.0
8.4 0.0 0.0
8.8 0.0 0.0
9.200000000000001 0.0 0.0
9.600000000000001 0.0 0.0
10.0 0.0 0.0
10.4 0.0 0.0
10.8 0.0 0.0
11.200000000000001 0.0 0.0
11.600000000000001 0.0 0.0
12.0 0.0 0.0
12.4 0.0 0.0
12.8 0.0 0.0
13.200000000000001 0.0 0.0
13.600000000000001 0.0 0.0
14.0 0.0 0.0
14.4 0.0 0.0
14.8 0.0 0.0
15.200000000000001 0.0 0.0
15.600000000000001 0.0 0.0
16.0 0.0 0.0
0.0 0.1 0.0
0.4 0.1 0.0
0.8 0.1 0.0
1.2000000000000002 0.1 0.0
1.6 0.1 0.0
2.0 0.1 0.0
2.4000000000000004 0.1 0.0
2.8000000000000003 0.1 0.0
3.2 0.1 0.0
3.6 0.1 0.0
4.0 0.1 0.0
4.4 0.1 0.0
4.800000000000001 0.1 0.0
5.2 0.1 0.0
5.6000000000000005 0.1 0.0
6.0 0.1 0.0
6.4 0.1 0.0
6.800000000000001 0.1 0.0
7.2 0.1 0.0
7.6000000000000005 0.1 0.0
8.0 0.1 0.0
8.4 0.1 0.0
8.8 0.1 0.0
9.200000000000001 0.1 0.0
9.600000000000001 0.1 0.0
10.0 0.1 0.0
10.4 0.1 0.0
10.8 0.1 0.0
11.200000000000001 0.1 0.0
11.600000000000001 0.1 0.0
12.0 0.1 0.0
12.4 0.1 0.0
12.8 0.1 0.0
13.200000000000001 0.1 0.0
13.600000000000001 0.1 0.0
14.0 0.1 0.0
14.4 0.1 0.0
14.8 0.1 0.0
15.200000000000001 0.1 0.0
15.600000000000001 0.1 0.0
16.0 0.1 0.0
0.0 0.2 0.0
0.4 0.2 0.0
0.8 0.2 0.0
1.2000000000000002 0.2 0.0
1.6 0.2 0.0
2.0 0.2 0.0
2.4000000000000004 0.2 0.0
2.8000000000000003 0.2 0.0
3.2 0.2 0.0
3.6 0.2 0.0
4.0 0.2 0.0
4.4 0.2 0.0
4.800000000000001 0.2 0.0
5.2 0.2 0.0
5.6000000000000005 0.2 0.0
6.0 0.2 0.0
6.4 0.2 0.0
6.800000000000001 0.2 0.0
7.2 0.2 0.0
7.6000000000000005 0.2 0.0
8.0 0.2 0.0
8.4 0.2 0.0
8.8 0.2 0.0
9.200000000000001 0.2 0.0
9.600000000000001 0.2 0.0
10.0 0.2 0.0
10.4 0.2 0.0
10.8 0.2 0.0
11.200000000000001 0.2 0.0
11.600000000000001 0.2 0.0
12.0 0.2 0.0
12.4 0.2 0.0
12.8 0.2 0.0
13.200000000000001 0.2 0.0
13.600000000000001 0.2 0.0
14.0 0.2 0.0
14.4 0.2 0.0
14.8 0.2 0.0
15.200000000000001 0.2 0.0
15.600000000000001 0.2 0.0
16.0 0.2 0.0
0.0 0.30000000000000004 0.0
0.4 0.30000000000000004 0.0
0.8 0.30000000000000004 0.0
1.2000000000000002 0.30000000000000004 0.0
1.6 0.30000000000000004 0.0
2.0 0.30000000000000004 0.0
2.4000000000000004 0.30000000000000004 0.0
2.8000000000000003 0.30000000000000004 0.0
3.2 0.30000000000000004 0.0
3.6 0.30000000000000004 0.0
4.0 0.30000000000000004 0.0
4.4 0.30000000000000004 0.0
4.800000000000001 0.30000000000000004 0.0
5.2 0.30000000000000004 0.0
5.6000000000000005 0.30000000000000004 0.0
6.0 0.30000000000000004 0.0
6.4 0.30000000000000004 0.0
6.800000000000001 0.30000000000000004 0.0
7.2 0.30000000000000004 0.0
7.6000000000000005 0.30000000000000004 0.0
8.0 0.30000000000000004 0.0
8.4 0.30000000000000004 0.0
8.8 0.30000000000000004 0.0
9.200000000000001 0.30000000000000004 0.0
9.600000000000001 0.30000000000000004 0.0
10.0 0.30000000000000004 0.0
10.4 0.30000000000000004 0.0
10.8 0.30000000000000004 0.0
11.200000000000001 0.30000000000000004 0.0
11.600000000000001 0.30000000000000004 0.0
12.0 0.30000000000000004 0.0
12.4 0.30000000000000004 0.0
12.8 0.30000000000000004 0.0
13.200000000000001 0.30000000000000004 0.0
13.600000000000001 0.30000000000000004 0.0
14.0 0.30000000000000004 0.0
14.4 0.30000000000000004 0.0
14.8 0.30000000000000004 0.0
15.200000000000001 0.30000000000000004 0.0
15.600000000000001 0.30000000000000004 0.0
16.0 0.30000000000000004 0.0
0.0 0.4 0.0
0.4 0.4 0.0
0.8 0.4 0.0
1.2000000000000002 0.4 0.0
1.6 0.4 0.0
2.0 0.4 0.0
2.4000000000000004 0.4 0.0
2.8000000000000003 0.4 0.0
3.2 0.4 0.0
3.6 0.4 0.0
4.0 0.4 0.0
4.4 0.4 0.0
4.800000000000001 0.4 0.0
5.2 0.4 0.0
5.6000000000000005 0.4 0.0
6.0 0.4 0.0
6.4 0.4 0.0
6.800000000000001 0.4 0.0
7.2 0.4 0.0
7.6000000000000005 0.4 0.0
8.0 0.4 0.0
8.4 0.4 0.0
8.8 0.4 0.0
9.200000000000001 0.4 0.0
9.600000000000001 0.4 0.0
10.0 0.4 0.0
10.4 0.4 0.0
10.8 0.4 0.0
11.200000000000001 0.4 0.0
11.600000000000001 0.4 0.0
12.0 0.4 0.0
12.4 0.4 0.0
12.8 0.4 0.0
13.200000000000001 0.4 0.0
13.600000000000001 0.4 0.0
14.0 0.4 0.0
14.4 0.4 0.0
14.8 0.4 0.0
15.200000000000001 0.4 0.0
15.600000000000001 0.4 0.0
16.0 0.4 0.0
0.0 0.5 0.0
0.4 0.5 0.0
0.8 0.5 0.0
1.2000000000000002 0.5 0.0
1.6 0.5 0.0
2.0 0.5 0.0
2.4000000000000004 0.5 0.0
2.8000000000000003 0.5 0.0
3.2 0.5 0.0
3.6 0.5 0.0
4.0 0.5 0.0
4.4 0.5 0.0
4.800000000000001 0.5 0.0
5.2 0.5 0.0
5.6000000000000005 0.5 0.0
6.0 0.5 0.0
6.4 0.5 0.0
6.800000000000001 0.5 0.0
7.2 0.5 0.0
7.6000000000000005 0.5 0.0
8.0 0.5 0.0
8.4 0.5 0.0
8.8 0.5 0.0
9.200000000000001 0.5 0.0
9.600000000000001 0.5 0.0
10.0 0.5 0.0
10.4 0.5 0.0
10.8 0.5 0.0
11.200000000000001 0.5 0.0
11.600000000000001 0.5 0.0
12.0 0.5 0.0
12.4 0.5 0.0
12.8 0.5 0.0
13.200000000000001 0.5 0.0
13.600000000000001 0.5 0.0
14.0 0.5 0.0
14.4 0.5 0.0
14.8 0.5 0.0
15.200000000000001 0.5 0.0
15.600000000000001 0.5 0.0
16.0 0.5 0.0
0.0 0.6000000000000001 0.0
0.4 0.6000000000000001 0.0
0.8 0.6000000000000001 0.0
1.2000000000000002 0.6000000000000001 0.0
1.6 0.6000000000000001 0.0
2.0 0.6000000000000001 0.0
2.4000000000000004 0.6000000000000001 0.0
2.8000000000000003 0.6000000000000001 0.0
3.2 0.6000000000000001 0.0
3.6 0.6000000000000001 0.0
4.0 0.6000000000000001 0.0
4.4 0.6000000000000001 0.0
4.800000000000001 0.6000000000000001 0.0
5.2 0.6000000000000001 0.0
5.6000000000000005 0.6000000000000001 0.0
6.0 0.6000000000000001 0.0
6.4 0.6000000000000001 0.0
6.800000000000001 0.6000000000000001 0.0
7.2 0.6000000000000001 0.0
7.6000000000000005 0.6000000000000001 0.0
8.0 0.6000000000000001 0.0
8.4 0.6000000000000001 0.0
8.8 0.6000000000000001 0.0
9.200000000000001 0.6000000000000001 0.0
9.600000000000001 0.6000000000000001 0.0
10.0 0.6000000000000001 0.0
10.4 0.6000000000000001 0.0
10.8 0.6000000000000001 0.0
11.200000000000001 0.6000000000000001 0.0
11.600000000000001 0.6000000000000001 0.0
12.0 0.6000000000000001 0.0
12.4 0.6000000000000001 0.0
12.8 0.6000000000000001 0.0
13.200000000000001 0.6000000000000001 0.0
13.600000000000001 0.6000000000000001 0.0
14.0 0.6000000000000001 0.0
14.4 0.6000000000000001 0.0
14.8 0.6000000000000001 0.0
15.200000000000001 0.6000000000000001 0.0
15.600000000000001 0.6000000000000001 0.0
16.0 0.6000000000000001 0.0
0.0 0.7000000000000001 0.0
0.4 0.7000000000000001 0.0
0.8 0.7000000000000001 0.0
1.2000000000000002 0.7000000000000001 0.0
1.6 0.7000000000000001 0.0
2.0 0.7000000000000001 0.0
2.4000000000000004 0.7000000000000001 0.0
2.8000000000000003 0.7000000000000001 0.0
3.2 0.7000000000000001 0.0
3.6 0.7000000000000001 0.0
4.0 0.7000000000000001 0.0
4.4 0.7000000000000001 0.0
4.800000000000001 0.7000000000000001 0.0
5.2 0.7000000000000001 0.0
5.6000000000000005 0.7000000000000001 0.0
6.0 0.7000000000000001 0.0
6.4 0.7000000000000001 0.0
6.800000000000001 0.7000000000000001 0.0
7.2 0.7000000000000001 0.0
7.6000000000000005 0.7000000000000001 0.0
8.0 0.7000000000000001 0.0
8.4 0.7000000000000001 0.0
8.8 0.7000000000000001 0.0
9.200000000000001 0.7000000000000001 0.0
9.600000000000001 0.7000000000000001 0.0
10.0 0.7000000000000001 0.0
10.4 0.7000000000000001 0.0
10.8 0.7000000000000001 0.0
11.200000000000001 0.7000000000000001 0.0
11.600000000000001 0.7000000000000001 0.0
12.0 0.7000000000000001 0.0
12.4 0.7000000000000001 0.0
12.8 0.7000000000000001 0.0
13.200000000000001 0.7000000000000001 0.0
13.600000000000001 0.7000000000000001 0.0
14.0 0.7000000000000001 0.0
14.4 0.7000000000000001 0.0
14.8 0.7000000000000001 0.0
15.200000000000001 0.7000000000000001 0.0
15.600000000000001 0.7000000000000001 0.0
16.0 0.7000000000000001 0.0
0.0 0.8 0.0
0.4 0.8 0.0
0.8 0.8 0.0
1.2000000000000002 0.8 0.0
1.6 0.8 0.0
2.0 0.8 0.0
2.4000000000000004 0.8 0.0
2.8000000000000003 0.8 0.0
3.2 0.8 0.0
3.6 0.8 0.0
4.0 0.8 0.0
4.4 0.8 0.0
4.800000000000001 0.8 0.0
5.2 0.8 0.0
5.6000000000000005 0.8 0.0
6.0 0.8 0.0
6.4 0.8 0.0
6.800000000000001 0.8 0.0
7.2 0.8 0.0
7.6000000000000005 0.8 0.0
8.0 0.8 0.0
8.4 0.8 0.0
8.8 0.8 0.0
9.200000000000001 0.8 0.0
9.600000000000001 0.8 0.0
10.0 0.8 0.0
10.4 0.8 0.0
10.8 0.8 0.0
11.200000000000001 0.8 0.0
11.600000000000001 0.8 0.0
12.0 0.8 0.0
12.4 0.8 0.0
12.8 0.8 0.0
13.200000000000001 0.8 0.0
13.600000000000001 0.8 0.0
14.0 0.8 0.0
14.4 0.8 0.0
14.8 0.8 0.0
15.200000000000001 0.8 0.0
15.600000000000001 0.8 0.0
16.0 0.8 0.0
0.0 0.9 0.0
0.4 0.9 0.0
0.8 0.9 0.0
1.2000000000000002 0.9 0.0
1.6 0.9 0.0
2.0 0.9 0.0
2.4000000000000004 0.9 0.0
2.8000000000000003 0.9 0.0
3.2 0.9 0.0
3.6 0.9 0.0
4.0 0.9 0.0
4.4 0.9 0.0
4.800000000000001 0.9 0.0
5.2 0.9 0.0
5.6000000000000005 0.9 0.0
6.0 0.9 0.0
6.4 0.9 0.0
6.800000000000001 0.9 0.0
7.2 0.9 0.0
7.6000000000000005 0.9 0.0
8.0 0.9 0.0
8.4 0.9 0.0
8.8 0.9 0.0
9.200000000000001 0.9 0.0
9.600000000000001 0.9 0.0
10.0 0.9 0.0
10.4 0.9 0.0
10.8 0.9 0.0
11.200000000000001 0.9 0.0
11.600000000000001 0.9 0.0
12.0 0.9 0.0
12.4 0.9 0.0
12.8 0.9 0.0
13.200000000000001 0.9 0.0
13.600000000000001 0.9 0.0
14.0 0.9 0.0
14.4 0.9 0.0
14.8 0.9 0.0
15.200000000000001 0.9 0.0
15.600000000000001 0.9 0.0
16.0 0.9 0.0
0.0 1.0 0.0
0.4 1.0 0.0
0.8 1.0 0.0
1.2000000000000002 1.0 0.0
1.6 1.0 0.0
2.0 1.0 0.0
2.4000000000000004 1.0 0.0
2.8000000000000003 1.0 0.0
3.2 1.0 0.0
3.6 1.0 0.0
4.0 1.0 0.0
4.4 1.0 0.0
4.800000000000001 1.0 0.0
5.2 1.0 0.0
5.6000000000000005 1.0 0.0
6.0 1.0 0.0
6.4 1.0 0.0
6.800000000000001 1.0 0.0
7.2 1.0 0.0
7.6000000000000005 1.0 0.0
8.0 1.0 0.0
8.4 1.0 0.0
8.8 1.0 0.0
9.200000000000001 1.0 0.0
9.600000000000001 1.0 0.0
10.0 1.0 0.0
10.4 1.0 0.0
10.8 1.0 0.0
11.200000000000001 1.0 0.0
11.600000000000001 1.0 0.0
12.0 1.0 0.0
12.4 1.0 0.0
12.8 1.0 0.0
13.200000000000001 1.0 0.0
13.600000000000001 1.0 0.0
14.0 1.0 0.0
14.4 1.0 0.0
14.8 1.0 0.0
15.200000000000001 1.0 0.0
15.600000000000001 1.0 0.0
16.0 1.0 0.0
0.0 1.1 0.0
0.4 1.1 0.0
0.8 1.1 0.0
1.2000000000000002 1.1 0.0
1.6 1.1 0.0
[...]
POINT_DATA 861
SCALARS Disp float 2
LOOKUP_TABLE default
0.0 0.0
0.004848959552719247 -0.16742801597509158
0.005959437555905655 -0.32698311827481635
0.006698990073520263 -0.48573114666916867
0.007604067310866777 -0.6441709661654421
0.008928556315073605 -0.8020196342958849
0.011075759297723784 -0.9589153143867519
0.014496041987855868 -1.1144190432452774
0.019705931496858408 -1.2679885463667755
0.027261669386239095 -1.418928403813287
0.0377299133720253 -1.5663074505051056
0.05168830499898157 -1.7088942917344356
0.06973248346264334 -1.8451505444293017
0.09246872134566889 -1.9732882417960294
0.12051296498583797 -2.0913213548108507
0.1544219637758847 -2.197105145783971
0.1945645459828289 -2.2883808013360825
0.2409581748608155 -2.362850204292564
0.29311941553539284 -2.41832802986561
0.3499888604387246 -2.4529740464394645
0.4098372107319086 -2.46552130855073
0.46968556102509007 -2.452974046439393
0.5265550059284115 -2.4183280298654624
0.5787162466029705 -2.362850204292351
0.6251098754809336 -2.288380801335816
0.6652524576878528 -2.197105145783667
0.699161456477874 -2.0913213548105163
0.7272057001180173 -1.9732882417956756
0.749941938001017 -1.8451505444289389
0.7679861164646543 -1.7088942917340755
0.7819445080915884 -1.566307450504757
0.7924127520773561 -1.418928403812958
0.7999684899667223 -1.267988546366471
0.805178379475714 -1.1144190432450014
0.8085986621658383 -0.9589153143865079
0.810745865148484 -0.8020196342956775
0.8120703541526888 -0.6441709661652714
0.8129754313900347 -0.4857311466690368
0.813714983907649 -0.32698311827472243
0.8148254619108344 -0.167428015975038
0.8196744214635504 0.0
0.041771408109644824 -0.0020776903611016027
0.04508320811621467 -0.16760493600753118
0.04568204574310816 -0.32704444310295483
0.04634428746397239 -0.48581354211247246
0.047149182188370595 -0.6442852795481059
0.04829058886657719 -0.8022457172766215
0.05015089048192475 -0.9593571047665167
0.053157805612631115 -1.115195396156646
0.057796607116768345 -1.269231019268406
0.06457364291614516 -1.420769506887288
0.07399268345799793 -1.568879106017338
0.08655500530038882 -1.712331726192155
0.10278080182334876 -1.84959552889555
0.12322520174093944 -1.9788883000900037
0.14845423973620675 -2.09822267699127
0.1789892741919442 -2.205428199688271
0.21518477449665374 -2.298183358044665
0.25708022908026906 -2.374088329311059
0.30426658852030486 -2.4308255706569724
0.35576872554128713 -2.466405054017687
0.40983721073189994 -2.479328466403067
0.46390569592250974 -2.466405054017614
0.5154078329434825 -2.430825570656822
0.5625941923835023 -2.3740883293108412
0.6044896469670972 -2.2981833580443927
0.6406851472717846 -2.2054281996879617
0.6712201817274991 -2.09822267699093
0.6964492197227432 -1.978888300089644
0.7168936196403106 -1.8495955288951813
0.7331194161632486 -1.7123317261917892
0.7456817380056195 -1.5688791060169847
0.7551007785474555 -1.4207695068869555
0.761877814346819 -1.2692310192680987
0.7665166158509464 -1.115195396156368
0.7695235309816459 -0.9593571047662715
0.7713838325969895 -0.8022457172764135
0.7725252392751943 -0.6442852795479348
0.7733301339995922 -0.4858135421123405
0.7739923757204562 -0.3270444431028609
0.7745912133473497 -0.16760493600747733
0.7779030133539147 -0.0020776903610992305
0.0826852346700436 -0.0037077795373184398
0.08507830472136729 -0.16768938334569305
0.08542581469538602 -0.32708108098962496
0.08596754730220114 -0.4858871973375915
0.08667960594045622 -0.644379814950446
0.08765697491305674 -0.8024253293770062
0.08923355183491175 -0.9597219307182726
0.09182778933329236 -1.1158579259798216
0.0958860933100873 -1.2703136976216478
0.1018681923135978 -1.4223920974745734
0.11021758411307593 -1.5711573766156839
0.12136684853335722 -1.715382184583898
0.13576356905330814 -1.8535429648782058
0.15389625533327692 -1.9838677926214356
0.1762853723285471 -2.1043690659523544
0.2034121504422677 -2.212854985601784
0.23562178454194696 -2.306949873705279
0.272992195571467 -2.384163941652847
0.3151940962459837 -2.4420575873307544
0.3613285808927929 -2.478476109515259
0.40983721073189155 -2.491745945100269
0.4583458405709871 -2.4784761095151837
0.5044803252177875 -2.442057587330601
0.54668222589229 -2.3841639416526252
0.5840526369217928 -2.306949873705002
0.6162622710214523 -2.2128549856014694
0.6433890491351524 -2.1043690659520093
0.665778166130402 -1.9838677926210708
0.68391085241035 -1.8535429648778319
0.6983075729302817 -1.715382184583527
0.709456837350545 -1.5711573766153266
0.7178062291500081 -1.4223920974742374
0.7237883281535068 -1.2703136976213378
0.7278466321302928 -1.115857925979542
0.7304408696286673 -0.9597219307180263
0.7320174465505191 -0.8024253293767977
0.7329948155231184 -0.6443798149502749
0.733706874161373 -0.48588719733745955
0.7342486067681882 -0.3270810809895311
0.7345961167422069 -0.1676893833456389
0.736989186793526 -0.0037077795373135804
0.12315128013820582 -0.005010214150389834
0.12493602093366438 -0.1677462278146136
0.1251492095452126 -0.3271017655291242
0.12557339929147426 -0.4859480988393929
0.12618954239984523 -0.6444606777932221
0.12702388610669046 -0.8025647127117477
0.1283321304879459 -0.960011893713702
0.13051561153856067 -1.1164078973370317
0.13398971173384563 -1.27123518713342
0.13916672997962823 -1.4237934518756878
0.14643376020356083 -1.5731391432013448
0.15615774205167815 -1.718044084889859
0.1687179498595274 -1.8569920842428482
0.18453470108727382 -1.9882236596331337
0.20406648280397688 -2.1097554103071876
0.22776099110959994 -2.2193786112672167
0.2559565941587947 -2.314673247815724
0.28877065938100177 -2.3930723461790424
0.3259592163581195 -2.4520204860596104
0.3667614207466368 -2.489211888896417
0.40983721073188345 -2.5028292898702262
0.4529130007171269 -2.48921188889634
0.4937152051056363 -2.452020486059454
0.5309037620827415 -2.393072346178817
0.5637178273049335 -2.3146732478154424
0.5919134303541113 -2.219378611266897
0.6156079386597161 -2.1097554103068386
0.635139720376401 -1.988223659632764
0.6509564716041293 -1.8569920842424699
0.6635166794119618 -1.7180440848894842
0.6732406612600635 -1.5731391432009838
0.6805076914839828 -1.423793451875349
0.685684709729755 -1.2712351871331076
0.689158809925032 -1.1164078973367506
0.6913422909756417 -0.9600118937134546
0.6926505353568946 -0.8025647127115387
0.6934848790637389 -0.6444606777930508
0.6941010221721097 -0.48594809883926093
0.6945252119183712 -0.3271017655290305
0.6947384005299195 -0.16774622781455914
0.696523141325374 -0.005010214150382746
0.163358999461183 -0.0060563991587861896
0.16469673050770675 -0.16779263912786452
0.1648360412664449 -0.32711357531675817
0.1651597309882852 -0.4859954298097714
0.1656769739855697 -0.6445296698258222
0.16638235615059965 -0.8026737824464963
0.16745220345836434 -0.9602329999578411
0.16923087981709622 -1.1168472869286374
0.17212301853327885 -1.2719962638971376
0.17649126441270147 -1.424972675525751
0.1826694603010952 -1.5748235241078974
0.1909636822119754 -1.7203168489488159
0.2016844758812569 -1.8599433128729523
0.21518361729269347 -1.9919564751953382
0.2318602822315942 -2.1143797647481852
0.2521121153563431 -2.2249949340950024
0.2762704893118222 -2.3213475613430266
0.30449480695482317 -2.4008058240868393
0.3366406945403964 -2.460712852231399
0.3721234050877979 -2.498629928975276
0.40983721073187546 -2.5126101271563135
0.44755101637595013 -2.4986299289751983
0.48303372692334434 -2.4607128522312403
0.5151796145089065 -2.400805824086611
0.5434039321518945 -2.3213475613427415
0.5675623061073589 -2.2249949340946786
0.5878141392320921 -2.1143797647478317
0.604490804170977 -1.9919564751949645
0.6179899455823984 -1.85994331287257
0.6287107392516655 -1.7203168489484373
0.6370049611625325 -1.574823524107533
0.6431831570509148 -1.4249726755254095
0.6475514029303283 -1.2719962638968234
0.6504435416465042 -1.1168472869283552
0.6522222180052318 -0.960232999957593
0.6532920653129947 -0.8026737824462872
0.653997447478024 -0.6445296698256509
0.6545146904753083 -0.4859954298096394
0.6548383801971487 -0.3271135753166644
0.6549776909558866 -0.16779263912780984
0.656315422002407 -0.006056399158777162
0.20339525510526218 -0.006891665091602671
0.20438884728439785 -0.1678340408791339
0.20448440520808644 -0.32712136369494765
0.2047241022076216 -0.48603014563253777
0.20514101371565804 -0.6445874326532696
0.20572653410492797 -0.8027597818992134
0.20658506800664367 -0.9603964233847904
0.2079901375793481 -1.1171797747067709
0.21030209398347224 -1.272599307527627
0.2138643843001323 -1.425931114192187
0.21895402800530317 -1.5762111906660288
0.2258190883041571 -1.7222019613395603
0.23470545485200275 -1.8623988111506702
0.2458955370093686 -1.9950685126268597
0.2597208433840789 -2.1182444883376377
0.27653698828844536 -2.2297037910195154
0.29665200949899384 -2.326968113951386
0.32025393442459493 -2.407356332284959
0.34731728177732085 -2.4681303591996704
0.37746262351389204 -2.5067375680130493
0.4098372107318674 -2.521106583431162
0.44221179794984 -2.50673756801297
0.47235713968640464 -2.4681303591995105
0.49942048703912123 -2.407356332284728
0.5230224119647116 -2.326968113951098
0.5431374331752474 -2.2297037910191886
0.5599535780796007 -2.118244488337281
0.5737788844542978 -1.9950685126264827
0.5849689666116514 -1.8623988111502845
0.5938553331594848 -1.722201961339179
0.6007203934583276 -1.5762111906656617
0.605810037163489 -1.4259311141918434
0.6093723274801415 -1.272599307527311
0.6116842838842602 -1.1171797747064875
0.6130893534569614 -0.9603964233845418
0.6139478873586757 -0.8027597818990041
0.6145334077479452 -0.6445874326530981
0.6149503192559814 -0.48603014563240576
0.6151900162555166 -0.32712136369485395
0.6152855741792052 -0.16783404087907908
0.616279166358338 -0.006891665091591974
0.24330682737005882 -0.007550953334633111
0.24403235176796964 -0.16787205701835187
0.24409843334288786 -0.3271276181029998
0.24426595864979483 -0.4860537011490842
0.2445834420411985 -0.6446335243019757
0.24505188828760102 -0.8028276574381757
0.2457204853645875 -0.9605146401083109
0.24678816478204715 -1.117417649662158
0.24854873158356133 -1.2730485107586158
0.25130992139650377 -1.4266721289455302
0.25531831441889546 -1.5773051866571495
0.2607613128733483 -1.7237026550720544
0.26782344715546125 -1.8643629089062226
0.2767194639612108 -1.9975650208072828
0.287714266223075 -2.1213539715705445
0.30110603292120014 -2.233508771114835
0.3171813763483225 -2.33153437252523
0.3361461553229398 -2.412716455115597
0.35807787928090296 -2.4742634372580574
0.382828955183905 -2.5135313123311898
0.4098372107318592 -2.528325222603448
0.43684546627981097 -2.51353131233111
0.46159654218280727 -2.4742634372578953
0.4835282661407628 -2.4127164551153633
0.5024930451153714 -2.33153437252494
0.5185683885424833 -2.2335087711145056
0.5319601552405977 -2.1213539715701852
0.5429549575024514 -1.9975650208069031
0.5518509743081914 -1.8643629089058344
0.5589131085902945 -1.7237026550716705
0.5643561070447387 -1.5773051866567804
0.5683645000671227 -1.426672128945185
0.5711256898800591 -1.2730485107582987
0.5728862566815691 -1.1174176496618737
0.5739539360990265 -0.9605146401080621
0.5746225331760121 -0.8028276574379662
0.5750909794224143 -0.6446335243018044
0.5754084628138179 -0.4860537011489522
0.5755759881207247 -0.327127618102906
0.5756420696956428 -0.16787205701829694
0.5763675940935515 -0.0075509533346210704
0.28312560302324186 -0.008061992117257886
0.2836420492358202 -0.16790813211080335
0.28368424301813544 -0.3271328917626787
0.28378661433228136 -0.48606751783465685
0.2840069797501141 -0.6446671099809435
0.284355158231127 -0.8028805107563501
0.2848540202555371 -0.960596987326581
0.28561716745993004 -1.1175767412725066
0.2868690724168589 -1.2733561975492973
0.28885753918335844 -1.4272019732075565
0.29179568429579 -1.5781108974233922
0.2958287065809647 -1.7248245045586081
0.3010836359999406 -1.865842351405852
0.30770886028070216 -1.999454061371892
0.3158996407704526 -2.1237169445301345
0.32589496844819804 -2.2364164618295006
0.3379466341290357 -2.3350493777741597
0.35226564849960856 -2.4168819455180888
0.36901659678873155 -2.47909797586567
0.3882798098805361 -2.518995621343187
0.40983721073185053 -2.5342604853206554
0.43139461158316333 -2.5189956213431057
0.45065782467496335 -2.4790979758655065
0.4674087729640802 -2.4168819455178534
0.4817277873346465 -2.3350493777738675
0.49377945301547593 -2.2364164618291684
0.5037747806932132 -2.123716944529773
0.5119655611829559 -1.9994540613715104
0.5185907854637104 -1.8658423514054618
0.5238457148826793 -1.7248245045582224
0.5278787371678474 -1.5781108974230216
0.5308168822802731 -1.4272019732072097
0.5328053490467686 -1.2733561975489793
0.5340572540036945 -1.1175767412722217
0.5348204012080859 -0.9605969873263321
0.5353192632324955 -0.8028805107561408
0.5356674417135081 -0.6446671099807721
0.5358878071313408 -0.4860675178345248
0.5359901784454867 -0.3271328917625849
0.5360323722278018 -0.16790813211074834
0.5365488184403787 -0.008061992117244765
0.32286983961246535 -0.008451706838567071
0.3232318026385431 -0.16794338501246164
0.323247254573671 -0.32713650624200113
0.32328879009045597 -0.48607268079588584
0.3234152461033029 -0.6446878937603565
0.32363922120396005 -0.802918019857778
0.3239731293952729 -0.9606532115860711
0.32446924954740186 -1.1176735124300654
0.32525970820434186 -1.2735419250951467
0.3265237295597308 -1.4275354609825406
0.3284228014203563 -1.5786380875813804
0.3310670490694094 -1.7255767850613055
0.33453519599577347 -1.86684728659268
0.3389182343359264 -2.0007475252996776
0.34434200611804416 -2.1253460908041633
0.3509774601922988 -2.2384382795061772
0.3590312556091622 -2.3375214796857127
0.3687187220075345 -2.419852825147836
0.38024498951741337 -2.4826174121270035
0.3938853406572889 -2.52310226038926
0.40983721073184154 -2.5388937402053555
0.42578908080639327 -2.523102260389179
0.4394294319462658 -2.4826174121268387
0.4509556994561402 -2.4198528251475997
0.4606431658545078 -2.3375214796854196
0.46869696127136556 -2.2384382795058433
0.4753324153456149 -2.1253460908038
0.48075618712772766 -2.0007475252992943
0.48513922546787636 -1.8668472865922887
0.48860737239423596 -1.7255767850609185
0.4912516200432847 -1.5786380875810084
0.49315069190390626 -1.4275354609821929
0.4944147132592928 -1.2735419250948283
0.49520517191623115 -1.1176735124297803
0.49570129206835933 -0.960653211585822
0.4960352002596718 -0.8029180198575686
0.4962591753603288 -0.644687893760185
0.49638563137317565 -0.4860726807957538
0.4964271668899607 -0.3271365062419073
0.4964426188250884 -0.16794338501240663
0.4968045818511652 -0.008451706838553166
0.36255153431907433 -0.008748205147614029
0.3628065883348442 -0.1679793256631683
0.362792795971068 -0.32713708107371253
0.3627762114473381 -0.4860700100559785
0.3628117916671032 -0.6446960784286612
0.36291036895751383 -0.8029387856598187
0.3630741647510734 -0.960687009035612
0.36332320815602515 -1.1177261952942161
0.3637060342742782 -1.2736326027833123
0.3643102626002598 -1.4276994441370607
0.365225143049187 -1.578908747851456
0.3665204857942606 -1.725977767130343
0.36823115889907604 -1.867395057024918
0.37040207967362354 -2.0014642579438715
0.3730985447300031 -2.126261696042689
0.37641658657720173 -2.239593243128366
0.38050373535228105 -2.338965369225781
0.3855695452651281 -2.4216404036683614
0.3918764350283052 -2.4848121968193007
0.39975398456054245 -2.5258094384369794
0.4098372107318324 -2.542187309359451
0.4199204369031218 -2.525809438436897
0.4277979864353577 -2.484812196819135
0.4341048761985322 -2.421640403668124
0.4391706861113764 -2.338965369225487
0.443257834886453 -2.2395932431280317
0.4465758767336493 -2.126261696042325
0.4492723417900267 -2.001464257943488
0.4514432625645727 -1.8673950570245261
0.4531539356693861 -1.7259777671299548
0.4544492784144577 -1.5789087478510837
0.45536415886338344 -1.4276994441367126
0.45596838718936405 -1.2736326027829934
0.4563512133076165 -1.117726195293931
0.456600256712568 -0.960687009035363
0.45676405250612734 -0.8029387856596092
0.45686262979653797 -0.6446960784284895
0.45689821001630304 -0.48607001005584644
0.45688162549257316 -0.32713708107361866
0.4568678331287968 -0.1679793256631133
0.4571228871445663 -0.008748205147599594
0.40218642020668904 -0.008974477471914166
0.402366214801015 -0.168016795947471
0.4023254938991433 -0.3271337287273428
0.4022531644313551 -0.48606003378757
0.40220083447920896 -0.6446919296353162
0.4021747336156968 -0.8029424116752557
0.4021651103299792 -0.9606975444547796
0.40216268519875387 -1.117743549917652
0.40216237296190394 -1.2736601563618712
0.4021626558295001 -1.4277438790770216
0.402162864106946 -1.5789784593081648
0.4021629572413651 -1.7260812970803865
0.40216030084037685 -1.8675371622082773
0.40215220382500727 -2.00165281852048
0.40213950161761947 -2.1265110559079266
0.40214885120252386 -2.2399254580445707
0.40227128599271067 -2.3394195749456257
0.4027157020812712 -2.4222788370483426
0.40381847265560716 -2.4857149721414946
0.4059680101770836 -2.527088469369178
0.4098372107318229 -2.544086453414334
0.4137064112865623 -2.5270884693690956
0.41585594880803844 -2.485714972141329
0.4169587193823736 -2.422278837048104
0.41740313547093416 -2.3394195749453317
0.4175255702611216 -2.239925458044236
0.41753491984602625 -2.1265110559075624
0.41752221763863906 -2.0016528185200966
0.41751412062327065 -1.8675371622078851
0.41751146422228336 -1.7260812970799984
0.41751155735670314 -1.5789784593077927
0.41751176563414955 -1.4277438790766734
0.4175120485017461 -1.2736601563615524
0.41751173626489646 -1.1177435499173667
0.41750931113367123 -0.9606975444545306
0.41749968784795377 -0.8029424116750462
0.4174735869844417 -0.6446919296351447
0.4174212570322956 -0.4860600337874379
0.41734892756450737 -0.3271337287272489
0.4173082066626358 -0.168016795947416
0.41748800125696145 -0.00897447747189941
0.44178570824819485 -0.009150397150553458
0.4419142136441525 -0.1680536160044714
0.4418491524143106 -0.3271267303314091
0.4417242495852252 -0.48604299356148994
0.44158689840474497 -0.6446759152416423
0.44143816110902695 -0.8029289635712045
0.4412561621762938 -0.9606842956995294
0.4410019258015635 -1.1177256948138177
0.44061863875732815 -1.273632676166431
0.4400150135048915 -1.4276994917558807
0.4391010613765651 -1.5789089743006748
0.43780563353399254 -1.7259772355543186
0.43608929168455896 -1.8673928829709971
0.43390161268806254 -2.001459298429427
0.4311807205047491 -2.126258628205725
0.42788315658934656 -2.239615422838922
0.42403429992657143 -2.3390756256254126
0.41979800131890305 -2.42195985102088
0.415516723336906 -2.4854978456231156
0.41172358039644547 -2.5270510216324893
0.40983721073181356 -2.5447059110769485
0.4079508410671809 -2.5270510216324067
0.4041576981267207 -2.4854978456229504
0.39987642014472524 -2.4219598510206413
0.39564012153706074 -2.3390756256251186
0.3917912648742893 -2.2396154228385874
0.38849370095889 -2.126258628205361
0.38577280877557996 -2.001459298429044
0.38358512977908715 -1.8673928829706057
0.38186878792965745 -1.725977235553931
0.38057336008708836 -1.5789089743003029
0.3796594079587647 -1.427699491755533
0.3790557827063298 -1.273632676166112
0.3786724956620956 -1.1177256948135326
0.37841825928736567 -0.9606842956992803
0.3782362603546329 -0.8029289635709951
0.37808752305891513 -0.6446759152414709
0.377950171878435 -0.4860429935613577
0.3778252690493497 -0.32712673033131523
0.3777602078195078 -0.16805361600441646
0.3778887132154654 -0.009150397150538475
0.4813651662474757 -0.009286042059781365
0.481455304097959 -0.16808786557036748
0.48136818652146657 -0.32711634165268194
0.481194000305649 -0.486019228388416
0.4809749150457406 -0.6446486272148417
0.4807065713124944 -0.8028987379122444
0.4803558505198219 -0.9606478411767561
0.47985550686994327 -1.117672525996262
0.47906472014353296 -1.2735420847792835
0.4778018934605282 -1.4275357402337212
0.4759036220612138 -1.5786383655490834
0.47325873033253757 -1.7255755648434503
0.4697855852118838 -1.8668424242663264
0.4653879871314194 -2.000737117899211
0.4599422122555704 -2.12533964405313
0.45332376131566954 -2.238483031655837
0.44548389445717135 -2.337740992695957