# vtk DataFile Version 3.0
Some data
ASCII
DATASET UNSTRUCTURED_GRID
POINTS 861 float
0.0 0.0 0.0
0.4 0.0 0.0
0.8 0.0 0.0
1.2000000000000002 0.0 0.0
1.6 0.0 0.0
2.0 0.0 0.0
2.4000000000000004 0.0 0.0
2.8000000000000003 0.0 0.0
3.2 0.0 0.0
3.6 0.0 0.0
4.0 0.0 0.0
4.4 0.0 0.0
4.800000000000001 0.0 0.0
5.2 0.0 0.0
5.6000000000000005 0.0 0.0
6.0 0.0 0.0
6.4 0.0 0.0
6.800000000000001 0.0 0.0
7.2 0.0 0.0
7.6000000000000005 0.0 0.0
8.0 0.0 0.0
8.4 0.0 0.0
8.8 0.0 0.0
9.200000000000001 0.0 0.0
9.600000000000001 0.0 0.0
10.0 0.0 0.0
10.4 0.0 0.0
10.8 0.0 0.0
11.200000000000001 0.0 0.0
11.600000000000001 0.0 0.0
12.0 0.0 0.0
12.4 0.0 0.0
12.8 0.0 0.0
13.200000000000001 0.0 0.0
13.600000000000001 0.0 0.0
14.0 0.0 0.0
14.4 0.0 0.0
14.8 0.0 0.0
15.200000000000001 0.0 0.0
15.600000000000001 0.0 0.0
16.0 0.0 0.0
0.0 0.1 0.0
0.4 0.1 0.0
0.8 0.1 0.0
1.2000000000000002 0.1 0.0
1.6 0.1 0.0
2.0 0.1 0.0
2.4000000000000004 0.1 0.0
2.8000000000000003 0.1 0.0
3.2 0.1 0.0
3.6 0.1 0.0
4.0 0.1 0.0
4.4 0.1 0.0
4.800000000000001 0.1 0.0
5.2 0.1 0.0
5.6000000000000005 0.1 0.0
6.0 0.1 0.0
6.4 0.1 0.0
6.800000000000001 0.1 0.0
7.2 0.1 0.0
7.6000000000000005 0.1 0.0
8.0 0.1 0.0
8.4 0.1 0.0
8.8 0.1 0.0
9.200000000000001 0.1 0.0
9.600000000000001 0.1 0.0
10.0 0.1 0.0
10.4 0.1 0.0
10.8 0.1 0.0
11.200000000000001 0.1 0.0
11.600000000000001 0.1 0.0
12.0 0.1 0.0
12.4 0.1 0.0
12.8 0.1 0.0
13.200000000000001 0.1 0.0
13.600000000000001 0.1 0.0
14.0 0.1 0.0
14.4 0.1 0.0
14.8 0.1 0.0
15.200000000000001 0.1 0.0
15.600000000000001 0.1 0.0
16.0 0.1 0.0
0.0 0.2 0.0
0.4 0.2 0.0
0.8 0.2 0.0
1.2000000000000002 0.2 0.0
1.6 0.2 0.0
2.0 0.2 0.0
2.4000000000000004 0.2 0.0
2.8000000000000003 0.2 0.0
3.2 0.2 0.0
3.6 0.2 0.0
4.0 0.2 0.0
4.4 0.2 0.0
4.800000000000001 0.2 0.0
5.2 0.2 0.0
5.6000000000000005 0.2 0.0
6.0 0.2 0.0
6.4 0.2 0.0
6.800000000000001 0.2 0.0
7.2 0.2 0.0
7.6000000000000005 0.2 0.0
8.0 0.2 0.0
8.4 0.2 0.0
8.8 0.2 0.0
9.200000000000001 0.2 0.0
9.600000000000001 0.2 0.0
10.0 0.2 0.0
10.4 0.2 0.0
10.8 0.2 0.0
11.200000000000001 0.2 0.0
11.600000000000001 0.2 0.0
12.0 0.2 0.0
12.4 0.2 0.0
12.8 0.2 0.0
13.200000000000001 0.2 0.0
13.600000000000001 0.2 0.0
14.0 0.2 0.0
14.4 0.2 0.0
14.8 0.2 0.0
15.200000000000001 0.2 0.0
15.600000000000001 0.2 0.0
16.0 0.2 0.0
0.0 0.30000000000000004 0.0
0.4 0.30000000000000004 0.0
0.8 0.30000000000000004 0.0
1.2000000000000002 0.30000000000000004 0.0
1.6 0.30000000000000004 0.0
2.0 0.30000000000000004 0.0
2.4000000000000004 0.30000000000000004 0.0
2.8000000000000003 0.30000000000000004 0.0
3.2 0.30000000000000004 0.0
3.6 0.30000000000000004 0.0
4.0 0.30000000000000004 0.0
4.4 0.30000000000000004 0.0
4.800000000000001 0.30000000000000004 0.0
5.2 0.30000000000000004 0.0
5.6000000000000005 0.30000000000000004 0.0
6.0 0.30000000000000004 0.0
6.4 0.30000000000000004 0.0
6.800000000000001 0.30000000000000004 0.0
7.2 0.30000000000000004 0.0
7.6000000000000005 0.30000000000000004 0.0
8.0 0.30000000000000004 0.0
8.4 0.30000000000000004 0.0
8.8 0.30000000000000004 0.0
9.200000000000001 0.30000000000000004 0.0
9.600000000000001 0.30000000000000004 0.0
10.0 0.30000000000000004 0.0
10.4 0.30000000000000004 0.0
10.8 0.30000000000000004 0.0
11.200000000000001 0.30000000000000004 0.0
11.600000000000001 0.30000000000000004 0.0
12.0 0.30000000000000004 0.0
12.4 0.30000000000000004 0.0
12.8 0.30000000000000004 0.0
13.200000000000001 0.30000000000000004 0.0
13.600000000000001 0.30000000000000004 0.0
14.0 0.30000000000000004 0.0
14.4 0.30000000000000004 0.0
14.8 0.30000000000000004 0.0
15.200000000000001 0.30000000000000004 0.0
15.600000000000001 0.30000000000000004 0.0
16.0 0.30000000000000004 0.0
0.0 0.4 0.0
0.4 0.4 0.0
0.8 0.4 0.0
1.2000000000000002 0.4 0.0
1.6 0.4 0.0
2.0 0.4 0.0
2.4000000000000004 0.4 0.0
2.8000000000000003 0.4 0.0
3.2 0.4 0.0
3.6 0.4 0.0
4.0 0.4 0.0
4.4 0.4 0.0
4.800000000000001 0.4 0.0
5.2 0.4 0.0
5.6000000000000005 0.4 0.0
6.0 0.4 0.0
6.4 0.4 0.0
6.800000000000001 0.4 0.0
7.2 0.4 0.0
7.6000000000000005 0.4 0.0
8.0 0.4 0.0
8.4 0.4 0.0
8.8 0.4 0.0
9.200000000000001 0.4 0.0
9.600000000000001 0.4 0.0
10.0 0.4 0.0
10.4 0.4 0.0
10.8 0.4 0.0
11.200000000000001 0.4 0.0
11.600000000000001 0.4 0.0
12.0 0.4 0.0
12.4 0.4 0.0
12.8 0.4 0.0
13.200000000000001 0.4 0.0
13.600000000000001 0.4 0.0
14.0 0.4 0.0
14.4 0.4 0.0
14.8 0.4 0.0
15.200000000000001 0.4 0.0
15.600000000000001 0.4 0.0
16.0 0.4 0.0
0.0 0.5 0.0
0.4 0.5 0.0
0.8 0.5 0.0
1.2000000000000002 0.5 0.0
1.6 0.5 0.0
2.0 0.5 0.0
2.4000000000000004 0.5 0.0
2.8000000000000003 0.5 0.0
3.2 0.5 0.0
3.6 0.5 0.0
4.0 0.5 0.0
4.4 0.5 0.0
4.800000000000001 0.5 0.0
5.2 0.5 0.0
5.6000000000000005 0.5 0.0
6.0 0.5 0.0
6.4 0.5 0.0
6.800000000000001 0.5 0.0
7.2 0.5 0.0
7.6000000000000005 0.5 0.0
8.0 0.5 0.0
8.4 0.5 0.0
8.8 0.5 0.0
9.200000000000001 0.5 0.0
9.600000000000001 0.5 0.0
10.0 0.5 0.0
10.4 0.5 0.0
10.8 0.5 0.0
11.200000000000001 0.5 0.0
11.600000000000001 0.5 0.0
12.0 0.5 0.0
12.4 0.5 0.0
12.8 0.5 0.0
13.200000000000001 0.5 0.0
13.600000000000001 0.5 0.0
14.0 0.5 0.0
14.4 0.5 0.0
14.8 0.5 0.0
15.200000000000001 0.5 0.0
15.600000000000001 0.5 0.0
16.0 0.5 0.0
0.0 0.6000000000000001 0.0
0.4 0.6000000000000001 0.0
0.8 0.6000000000000001 0.0
1.2000000000000002 0.6000000000000001 0.0
1.6 0.6000000000000001 0.0
2.0 0.6000000000000001 0.0
2.4000000000000004 0.6000000000000001 0.0
2.8000000000000003 0.6000000000000001 0.0
3.2 0.6000000000000001 0.0
3.6 0.6000000000000001 0.0
4.0 0.6000000000000001 0.0
4.4 0.6000000000000001 0.0
4.800000000000001 0.6000000000000001 0.0
5.2 0.6000000000000001 0.0
5.6000000000000005 0.6000000000000001 0.0
6.0 0.6000000000000001 0.0
6.4 0.6000000000000001 0.0
6.800000000000001 0.6000000000000001 0.0
7.2 0.6000000000000001 0.0
7.6000000000000005 0.6000000000000001 0.0
8.0 0.6000000000000001 0.0
8.4 0.6000000000000001 0.0
8.8 0.6000000000000001 0.0
9.200000000000001 0.6000000000000001 0.0
9.600000000000001 0.6000000000000001 0.0
10.0 0.6000000000000001 0.0
10.4 0.6000000000000001 0.0
10.8 0.6000000000000001 0.0
11.200000000000001 0.6000000000000001 0.0
11.600000000000001 0.6000000000000001 0.0
12.0 0.6000000000000001 0.0
12.4 0.6000000000000001 0.0
12.8 0.6000000000000001 0.0
13.200000000000001 0.6000000000000001 0.0
13.600000000000001 0.6000000000000001 0.0
14.0 0.6000000000000001 0.0
14.4 0.6000000000000001 0.0
14.8 0.6000000000000001 0.0
15.200000000000001 0.6000000000000001 0.0
15.600000000000001 0.6000000000000001 0.0
16.0 0.6000000000000001 0.0
0.0 0.7000000000000001 0.0
0.4 0.7000000000000001 0.0
0.8 0.7000000000000001 0.0
1.2000000000000002 0.7000000000000001 0.0
1.6 0.7000000000000001 0.0
2.0 0.7000000000000001 0.0
2.4000000000000004 0.7000000000000001 0.0
2.8000000000000003 0.7000000000000001 0.0
3.2 0.7000000000000001 0.0
3.6 0.7000000000000001 0.0
4.0 0.7000000000000001 0.0
4.4 0.7000000000000001 0.0
4.800000000000001 0.7000000000000001 0.0
5.2 0.7000000000000001 0.0
5.6000000000000005 0.7000000000000001 0.0
6.0 0.7000000000000001 0.0
6.4 0.7000000000000001 0.0
6.800000000000001 0.7000000000000001 0.0
7.2 0.7000000000000001 0.0
7.6000000000000005 0.7000000000000001 0.0
8.0 0.7000000000000001 0.0
8.4 0.7000000000000001 0.0
8.8 0.7000000000000001 0.0
9.200000000000001 0.7000000000000001 0.0
9.600000000000001 0.7000000000000001 0.0
10.0 0.7000000000000001 0.0
10.4 0.7000000000000001 0.0
10.8 0.7000000000000001 0.0
11.200000000000001 0.7000000000000001 0.0
11.600000000000001 0.7000000000000001 0.0
12.0 0.7000000000000001 0.0
12.4 0.7000000000000001 0.0
12.8 0.7000000000000001 0.0
13.200000000000001 0.7000000000000001 0.0
13.600000000000001 0.7000000000000001 0.0
14.0 0.7000000000000001 0.0
14.4 0.7000000000000001 0.0
14.8 0.7000000000000001 0.0
15.200000000000001 0.7000000000000001 0.0
15.600000000000001 0.7000000000000001 0.0
16.0 0.7000000000000001 0.0
0.0 0.8 0.0
0.4 0.8 0.0
0.8 0.8 0.0
1.2000000000000002 0.8 0.0
1.6 0.8 0.0
2.0 0.8 0.0
2.4000000000000004 0.8 0.0
2.8000000000000003 0.8 0.0
3.2 0.8 0.0
3.6 0.8 0.0
4.0 0.8 0.0
4.4 0.8 0.0
4.800000000000001 0.8 0.0
5.2 0.8 0.0
5.6000000000000005 0.8 0.0
6.0 0.8 0.0
6.4 0.8 0.0
6.800000000000001 0.8 0.0
7.2 0.8 0.0
7.6000000000000005 0.8 0.0
8.0 0.8 0.0
8.4 0.8 0.0
8.8 0.8 0.0
9.200000000000001 0.8 0.0
9.600000000000001 0.8 0.0
10.0 0.8 0.0
10.4 0.8 0.0
10.8 0.8 0.0
11.200000000000001 0.8 0.0
11.600000000000001 0.8 0.0
12.0 0.8 0.0
12.4 0.8 0.0
12.8 0.8 0.0
13.200000000000001 0.8 0.0
13.600000000000001 0.8 0.0
14.0 0.8 0.0
14.4 0.8 0.0
14.8 0.8 0.0
15.200000000000001 0.8 0.0
15.600000000000001 0.8 0.0
16.0 0.8 0.0
0.0 0.9 0.0
0.4 0.9 0.0
0.8 0.9 0.0
1.2000000000000002 0.9 0.0
1.6 0.9 0.0
2.0 0.9 0.0
2.4000000000000004 0.9 0.0
2.8000000000000003 0.9 0.0
3.2 0.9 0.0
3.6 0.9 0.0
4.0 0.9 0.0
4.4 0.9 0.0
4.800000000000001 0.9 0.0
5.2 0.9 0.0
5.6000000000000005 0.9 0.0
6.0 0.9 0.0
6.4 0.9 0.0
6.800000000000001 0.9 0.0
7.2 0.9 0.0
7.6000000000000005 0.9 0.0
8.0 0.9 0.0
8.4 0.9 0.0
8.8 0.9 0.0
9.200000000000001 0.9 0.0
9.600000000000001 0.9 0.0
10.0 0.9 0.0
10.4 0.9 0.0
10.8 0.9 0.0
11.200000000000001 0.9 0.0
11.600000000000001 0.9 0.0
12.0 0.9 0.0
12.4 0.9 0.0
12.8 0.9 0.0
13.200000000000001 0.9 0.0
13.600000000000001 0.9 0.0
14.0 0.9 0.0
14.4 0.9 0.0
14.8 0.9 0.0
15.200000000000001 0.9 0.0
15.600000000000001 0.9 0.0
16.0 0.9 0.0
0.0 1.0 0.0
0.4 1.0 0.0
0.8 1.0 0.0
1.2000000000000002 1.0 0.0
1.6 1.0 0.0
2.0 1.0 0.0
2.4000000000000004 1.0 0.0
2.8000000000000003 1.0 0.0
3.2 1.0 0.0
3.6 1.0 0.0
4.0 1.0 0.0
4.4 1.0 0.0
4.800000000000001 1.0 0.0
5.2 1.0 0.0
5.6000000000000005 1.0 0.0
6.0 1.0 0.0
6.4 1.0 0.0
6.800000000000001 1.0 0.0
7.2 1.0 0.0
7.6000000000000005 1.0 0.0
8.0 1.0 0.0
8.4 1.0 0.0
8.8 1.0 0.0
9.200000000000001 1.0 0.0
9.600000000000001 1.0 0.0
10.0 1.0 0.0
10.4 1.0 0.0
10.8 1.0 0.0
11.200000000000001 1.0 0.0
11.600000000000001 1.0 0.0
12.0 1.0 0.0
12.4 1.0 0.0
12.8 1.0 0.0
13.200000000000001 1.0 0.0
13.600000000000001 1.0 0.0
14.0 1.0 0.0
14.4 1.0 0.0
14.8 1.0 0.0
15.200000000000001 1.0 0.0
15.600000000000001 1.0 0.0
16.0 1.0 0.0
0.0 1.1 0.0
0.4 1.1 0.0
0.8 1.1 0.0
1.2000000000000002 1.1 0.0
1.6 1.1 0.0
[...]
POINT_DATA 861
SCALARS Disp float 2
LOOKUP_TABLE default
0.0 0.0
0.0059862514721553475 -0.26876691768045047
0.007360105265007654 -0.5280709873363343
0.008154890321116937 -0.7862766963971447
0.009195479242502587 -1.0441011289764728
0.010914133502725956 -1.3011052837718238
0.013979146503458542 -1.5567017894840733
0.01921340947304471 -1.8101497023658881
0.027587496546587757 -2.0605204578190364
0.04015937064910991 -2.3065999506368753
0.057981912165917526 -2.5467470889545782
0.08203982802603119 -2.7788138605853363
0.11322036154723165 -3.000180950301424
0.152303915322279 -3.2078814496906474
0.19995890556669216 -3.398688634773472
0.2566730220413231 -3.569187569239404
0.3226312570714962 -3.7158687386213383
0.3975715816952322 -3.8352777032052225
0.480663944911957 -3.924252581355742
0.5704635949653772 -3.9801736772920755
0.6646812035663194 -4.001270793209227
0.7588988121672564 -3.98017367729195
0.8486984622206576 -3.924252581355486
0.9317908254373488 -3.8352777032048526
1.0067311500610432 -3.7158687386208746
1.0726893850911707 -3.569187569238875
1.1294035015657562 -3.3986886347728924
1.1770584918101237 -3.207881449690033
1.2161420455851257 -3.0001809503007952
1.2473225791062825 -2.7788138605847124
1.2713804949663579 -2.5467470889539765
1.2892030364831333 -2.3065999506363086
1.3017749105856304 -2.0605204578185137
1.3101489976591554 -1.8101497023654156
1.3153832606287286 -1.5567017894836577
1.3184482736294534 -1.3011052837714714
1.3201669278896733 -1.0441011289761843
1.321207516811058 -0.7862766963969245
1.322002301867167 -0.5280709873361804
1.3233761556600179 -0.2687669176803657
1.32936240713217 0.0
0.06703914856497595 -0.0024792290578375116
0.07124462794426874 -0.2690493811275046
0.07195732856410972 -0.5281337005970302
0.07266044566856324 -0.7863678142602125
0.07357011881074446 -1.0442541416512563
0.07502726820694397 -1.3014508045151985
0.07765998349789269 -1.557425005222344
0.08224512424959206 -1.811472276159279
0.0896938147127798 -2.062690257381087
0.1009717362412616 -2.3098695180699003
0.11701825811535943 -2.5513562864238244
0.1386969058133834 -2.7849816495344863
0.16679095114347756 -3.008104404986123
0.20200945181568206 -3.2177348107906085
0.24496236515603662 -3.41061534268063
0.296104587264274 -3.583277249816485
0.3556275986794327 -3.732124114229045
0.4233312820869489 -3.8535813473368647
0.4985051313354371 -3.944340178292239
0.5797709930038148 -4.0016070134202195
0.6646812035663041 -4.02326194512571
0.7495914141287878 -4.001607013420091
0.8308572757971477 -3.944340178291977
0.9060311250456066 -3.853581347336486
0.9737348084530866 -3.7321241142285717
1.033257819868205 -3.583277249815945
1.0844000419764013 -3.4106153426800394
1.1273529553167143 -3.2177348107899837
1.1625714559888782 -3.0081044049854837
1.1906655013189331 -2.784981649533853
1.2123441490169227 -2.5513562864232138
1.2283906708909913 -2.3098695180693274
1.2396685924194504 -2.062690257380559
1.2471172828826214 -1.8114722761588034
1.2517024236343093 -1.5574250052219258
1.2543351389252513 -1.3014508045148452
1.2557922883214478 -1.0442541416509676
1.2567019614636283 -0.7863678142599922
1.2574050785680817 -0.5281337005968763
1.2581177791879228 -0.2690493811274195
1.26232325856721 -0.0024792290578350105
0.1330736440582247 -0.004452555480267888
0.13616728571128936 -0.26919023845303297
0.1365742857072213 -0.5281657966660271
0.1371473481912837 -0.7864479185468932
0.1379365915610308 -1.0443754127338931
0.13915868157623923 -1.3017241630584069
0.1413700859050334 -1.5580245367249599
0.1453090985067139 -1.8126079624161062
0.1518160751380761 -2.064592087874778
0.16176730802775968 -2.3127652552840106
0.17599412331930953 -2.555457253438621
0.1952490429616653 -2.79047882045999
0.2202134299518927 -3.015172186486148
0.25151316460237605 -3.226531396746394
0.2897041992414452 -3.421272464937257
0.33521049197283875 -3.5958811538129885
0.38824113072823246 -3.7466873745773164
0.4486741282614464 -3.870010481291207
0.5159058238898004 -3.9623999216994465
0.5886233628159995 -4.0208508394019296
0.6646812035662889 -4.043006653382661
0.7407390443165733 -4.020850839401798
0.813456583242756 -3.9623999216991788
0.8806882788710843 -3.8700104812908203
0.941121276404267 -3.746687374576834
0.994151915159625 -3.595881153812439
1.0396582078909817 -3.4212724649366564
1.0778492425300137 -3.2265313967457594
1.1091489771804608 -3.0151721864854992
1.134113364170654 -2.790478820459348
1.1533682838129788 -2.555457253438003
1.1675950991045028 -2.3127652552834315
1.1775463319941661 -2.0645920878742454
1.184053308625513 -1.8126079624156275
1.1879923212271835 -1.55802453672454
1.190203725555972 -1.3017241630580527
1.191425815571178 -1.0443754127336045
1.1922150589409248 -0.7864479185466728
1.1927881214249871 -0.5281657966658732
1.1931951214209193 -0.2691902384529475
1.1962887630739782 -0.00445255548026263
0.1985768277740797 -0.00604073968476708
0.20092124307800752 -0.2692863678833575
0.20116896732274198 -0.528183360025565
0.20161699793586005 -0.786512317656234
0.20229003017904054 -1.044473393799733
0.20330515739750613 -1.3019337768359287
0.20511976065574725 -1.558504644275556
0.2084206544046785 -1.8135577562552618
0.21398040258174736 -2.066222291726271
0.22258597013596307 -2.315280416834768
0.2349655781600412 -2.5590416674121568
0.2517650883211229 -2.795297340178524
0.2735681932734027 -3.0213759432923357
0.3009164497188761 -3.234260395684203
0.33430107025594363 -3.430647458167652
0.37412221827313824 -3.6069864754415857
0.4206107467667246 -3.7595475226595676
0.4737211474354139 -3.884557188275258
0.5329653227240044 -3.9784237887032012
0.5972232529522089 -4.037954552555902
0.6646812035662744 -4.0606161772419735
0.7321391541803351 -4.037954552555768
0.7963970844085246 -3.9784237887029286
0.8556412596970926 -3.8845571882748646
0.9087516603657546 -3.7595475226590773
0.9552401888593098 -3.606986475441028
0.9950613368764722 -3.430647458167043
1.028445957413507 -3.23426039568356
1.0557942138589487 -3.0213759432916794
1.0775973188111987 -2.795297340177874
1.0943968289722534 -2.5590416674115324
1.1067764369963087 -2.315280416834184
1.1153820045505065 -2.0662222917257345
1.120941752727562 -1.8135577562547807
1.1242426464764845 -1.5585046442751345
1.1260572497347212 -1.3019337768355739
1.1270723769531852 -1.0444733937994444
1.1277454091963655 -0.7865123176560136
1.1281934398094835 -0.5281833600254112
1.1284411640542178 -0.2692863678832717
1.130785579358141 -0.006040739684759229
0.26377744909053824 -0.007325801905656466
0.2655603581146727 -0.26936088284007736
0.26572178041509537 -0.528193424489457
0.26606477377461357 -0.7865621603550007
0.2666265980778992 -1.044552589666215
0.2674590421359982 -1.3020918857245893
0.26891607875588225 -1.558873691869009
0.27159409619326025 -1.8143246663237715
0.27621317514961424 -2.0675808792255412
0.2834675997389126 -2.3174120397304647
0.29398700876337147 -2.5621053553286206
0.30831516524401326 -2.7994322608986066
0.32693761960463846 -3.0267105377665207
0.3503130515931474 -3.2409161753991707
0.3788717684927865 -3.4387326415412605
0.41297690678694804 -3.616583602371467
0.45287673419301233 -3.770692963243473
0.49860454597931864 -3.897208044135958
0.549825446718404 -3.9924133471703076
0.6056734703687205 -4.052955419468725
0.66468120356626 -4.076151148615551
0.7236889367637952 -4.052955419468589
0.7795369604140981 -3.992413347170031
0.8307578611531639 -3.8972080441355588
0.8764856729394469 -3.7706929632429755
0.9163855003454844 -3.616583602370902
0.9504906386396178 -3.438732641540644
0.9790493555392289 -3.24091617539852
1.0024247875277106 -3.0267105377658567
1.0210472418883103 -2.7994322608979503
1.0353753983689293 -2.5621053553279904
1.0458948073933685 -2.3174120397298754
1.0531492319826512 -2.0675808792250012
1.057768310938994 -1.814324666323288
1.0604463283763648 -1.558873691868586
1.0619033649962453 -1.3020918857242343
1.0627358090543433 -1.044552589665926
1.0632976333576287 -0.7865621603547804
1.0636406267171468 -0.5281934244893033
1.0638020490175695 -0.26936088283999127
1.0655849580416996 -0.0073258019056463885
0.3287784921205176 -0.008359503993767536
0.33011946266571446 -0.2694216933910482
0.3302308757333172 -0.528200705440616
0.33048749203420025 -0.7865991266207311
0.3309416728802481 -1.0446165154521898
0.3316142349123862 -1.3022096288176765
0.33275205175814976 -1.559145422444759
0.33485017718092813 -1.8149150032293289
0.3385408346005485 -2.068670927546734
0.3444520719397944 -2.3191611323567893
0.3531126959565864 -2.5646478017107333
0.3649672250594995 -2.802882662813817
0.380406359915955 -3.0311745728050803
0.3998046543965084 -3.246496854193123
0.42352780317272304 -3.4455259228494004
0.4519075184272464 -3.6246674716104264
0.48519010019257014 -3.78011266057433
0.5234777802408876 -3.907949706794349
0.5666219282048727 -4.004365856405351
0.6140570263635999 -4.065872384438847
0.6646812035662456 -4.089647553055192
0.7153053807688873 -4.065872384438708
0.7627404789276028 -4.00436585640507
0.8058846268915714 -3.907949706793945
0.8441723069398691 -3.780112660573827
0.8774548887051699 -3.6246674716098544
0.9058346039596695 -3.4455259228487773
0.9295577527358608 -3.2464968541924666
0.9489560472163918 -3.03117457280441
0.9643951820728263 -2.8028826628131553
0.9762497111757201 -2.5646478017100987
0.9849103351924959 -2.3191611323561965
0.9908215725317289 -2.068670927546191
0.9945122299513399 -1.8149150032288432
0.9966103553741126 -1.559145422444335
0.9977481722198737 -1.3022096288173213
0.9984207342520109 -1.044616515451901
0.9988749150980587 -0.7865991266205107
0.9991315313989416 -0.5282007054404624
0.9992429444665444 -0.2694216933909618
1.0005839150117377 -0.00835950399375559
0.3936337481686487 -0.009181416001484515
0.39462237537751393 -0.26947190504153434
0.3947015844286517 -0.5282075781629275
0.3948849417116084 -0.7866246993682302
0.3952335846082645 -1.044667198260938
0.3957628835933657 -1.3022965389990815
0.39661874198853914 -1.559336390590422
0.3981876006305442 -1.815343686007869
0.4009935071915293 -2.0694992639536616
0.4055800551029636 -2.3205323916709375
0.412397723640971 -2.566672655788215
0.4217913786736814 -2.805651588915816
0.434058773320997 -3.034771033734485
0.44949165588576273 -3.251005205689881
0.4683909273994908 -3.4510289880265392
0.4910468388929026 -3.6312379334834026
0.5177009531498725 -3.7878004304166932
0.5485086969246583 -3.916768780115473
0.5835018977688538 -4.01426924562039
0.6224564619112566 -4.076705986156182
0.6646812035662308 -4.101121086640575
0.7069059452212016 -4.076705986156041
0.745860509363595 -4.014269245620106
0.7808537102077766 -3.9167687801150644
0.8116614539825462 -3.7878004304161856
0.8383155682394974 -3.6312379334828253
0.8609714797328898 -3.4510289880259117
0.8798707512465993 -3.2510052056892196
0.8953036338113476 -3.034771033733811
0.9075710284586466 -2.8056515889151497
0.9169646834913413 -2.566672655787576
0.9237823520293358 -2.3205323916703415
0.92836889994076 -2.069499263953116
0.931174806501738 -1.8153436860073822
0.932743665143739 -1.5593363905899977
0.9335995235389106 -1.302296538998726
0.9341288225240113 -1.044667198260649
0.9344774654206672 -0.7866246993680099
0.9346608227036239 -0.5282075781627737
0.9347400317547616 -0.2694719050414477
0.9357286589636241 -0.009181416001470991
0.4583790101142341 -0.009823415846942194
0.45908686438197244 -0.2695138762230418
0.45914160125087616 -0.528214541286359
0.4592590607060305 -0.786640158452718
0.45950366825479694 -1.0447048355434567
0.45989685147576376 -1.302360077356879
0.4605104591688608 -1.5594627368659657
0.46160257129857946 -1.8156310237494508
0.46358567248681304 -2.070081600721428
0.4668956957745502 -2.3215352671016327
0.47189941798400553 -2.568187679589831
0.47885791074889505 -2.807746458656732
0.4879817790005301 -3.037507709321286
0.49947850106392205 -3.2544489252778988
0.513579075263989 -3.455248766315218
0.5305324568362096 -3.6362996832407606
0.5505686644114883 -3.7937559132789818
0.5738711215676984 -3.9236540778145548
0.6006255894557252 -4.022101612372557
0.6309649468058376 -4.085436599734527
0.6646812035662157 -4.110566920089816
0.6983974603265913 -4.0854365997343844
0.7287368176766966 -4.02210161237227
0.755491285564712 -3.9236540778141427
0.7787937427209097 -3.79375591327847
0.7988299502961738 -3.6362996832401793
0.8157833318683795 -3.455248766314586
0.8298839060684331 -3.254448925277234
0.8413806281318125 -3.037507709320608
0.8505044963834352 -2.8077464586560623
0.8574629891483126 -2.5681876795891894
0.8624667113577588 -2.321535267101034
0.8657767346454889 -2.0700816007208807
0.8677598358337174 -1.8156310237489626
0.8688519479634331 -1.5594627368655407
0.869465555656529 -1.3023600773565236
0.8698587388774954 -1.0447048355431676
0.8701033464262619 -0.7866401584524976
0.8702208058814161 -0.5282145412862053
0.8702755427503198 -0.2695138762229551
0.8709833970180562 -0.009823415846927372
0.5230363419258718 -0.010315362991924903
0.5235293564452252 -0.26954972761482276
0.5235580309005831 -0.528220765475576
0.5236131590010188 -0.786646518109995
0.5237561205873773 -1.0447287769955762
0.5240117188730091 -1.3024043437918187
0.5244116845038451 -1.5595414288671887
0.5250897316140488 -1.8158015437625272
0.5263229168077627 -2.0704426944281873
0.528429922100309 -2.322188666096524
0.5316763087927485 -2.569206694575063
0.5362440697656303 -2.809180175553356
0.5422654450187041 -3.0393979572295153
0.5498709170869345 -3.256841788884174
0.5592179271053979 -3.458197732081708
0.5705024197913706 -3.639863098746005
0.5839452380447533 -3.7979870179174573
0.5997568102193285 -3.9286004650866504
0.6181888711630833 -4.0278330676036145
0.639699849721381 -4.092021647707437
0.6646812035662002 -4.117957140174325
0.6896625574110177 -4.092021647707293
0.7111735359693108 -4.027833067603325
0.7296055969130572 -3.928600465086236
0.7454171690876236 -3.797987017916943
0.7588599873409962 -3.6398630987454217
0.770144480026959 -3.4581977320810733
0.7794914900454142 -3.2568417888835066
0.7870969621136364 -3.039397957228835
0.7931183373667025 -2.8091801755526844
0.7976860983395768 -2.5692066945744196
0.8009324850320102 -2.3221886660959234
0.8030394903245519 -2.070442694427639
0.8042726755182626 -1.8158015437620383
0.8049507226284649 -1.5595414288667635
0.8053506882593002 -1.302404343791463
0.8056062865449319 -1.0447287769952875
0.8057492481312903 -0.7866465181097747
0.8058043762317261 -0.528220765475422
0.8058330506870837 -0.269549727614736
0.8063260652064359 -0.010315362991909096
0.5876215539144632 -0.010687104259730842
0.5879598520639823 -0.26958212398546894
0.5879574753005139 -0.5282244369429797
0.587951376321745 -0.7866445330216124
0.587995498658207 -1.0447387427752102
0.5881097802083504 -1.3024295307047442
0.5883065009910357 -1.559585514521257
0.5886313249014683 -1.8158849505392527
0.5892025619455955 -2.0706185719144576
0.5902021058139633 -2.3225252153752036
0.5917754910913019 -2.569756342700392
0.5940221796922467 -2.8099756353937484
0.5969988284603488 -3.0404636122560125
0.6007689769559449 -3.2582064255841536
0.6054205779397005 -3.459897810189535
0.6110846316407322 -3.641946119075974
0.6179576802581332 -3.800509006599477
0.6262994574780771 -3.9316198709209336
0.6364118537601612 -4.031439264436224
0.6488411137435857 -4.09639134616751
0.6646812035661841 -4.1232309913987635
0.6805212933887818 -4.0963913461673656
0.6929505533722043 -4.031439264435934
0.7030629496542832 -3.931619870920518
0.7114047268742215 -3.8005090065989613
0.7182777754916178 -3.6419461190753877
0.723941829192645 -3.4598978101888984
0.7285934301763973 -3.258206425583485
0.7323635786719903 -3.040463612255331
0.7353402274400892 -2.8099756353930747
0.7375869160410305 -2.5697563426997476
0.7391603013183665 -2.3225252153746023
0.7401598451867327 -2.0706185719139087
0.7407310822308584 -1.8158849505387635
0.7410559061412907 -1.5595855145208317
0.7412526269239756 -1.302429530704388
0.7413669084741189 -1.0447387427749213
0.7414110308105809 -0.786644533021392
0.7414049318318119 -0.5282244369428256
0.7414025550683435 -0.2695821239853822
0.7417408532178617 -0.010687104259714362
0.6521520629058037 -0.010964581076027966
0.652381233047643 -0.2696141179711321
0.6523450108892096 -0.5282236275468707
0.6522782625449306 -0.7866346741785734
0.6522260742892265 -1.0447348323319199
0.6521992796249158 -1.3024347971628016
0.6521889109744262 -1.5595993585620997
0.6521852040420758 -1.8159098127236737
0.6521838165598872 -2.0706644197221507
0.6521837128834316 -2.3226100314697176
0.6521838323056995 -2.5698969894565478
0.65218237851746 -2.810186678093641
0.6521733060153668 -3.0407559615283573
0.652154037574142 -3.2585922551372932
0.6521407321997985 -3.460396414829116
0.6522024823705411 -3.642590960907404
0.6525073242983579 -3.8013566981542244
0.6533711566929263 -3.9327514734362485
0.6552322479534058 -4.032950777867509
0.6585790213629173 -4.098478454222176
0.6646812035661673 -4.126285388452427
0.670783385769418 -4.098478454222032
0.674130159178929 -4.032950777867218
0.675991250439407 -3.932751473435831
0.6768550828339748 -3.8013566981537092
0.6771599247617924 -3.6425909609068183
0.6772216749325359 -3.46039641482848
0.6772083695581936 -3.2585922551366244
0.6771891011169706 -3.040755961527675
0.6771800286148792 -2.8101866780929674
0.677178574826641 -2.569896989455903
0.6771786942489098 -2.322610031469116
0.6771785905724548 -2.070664419721602
0.6771772030902664 -1.8159098127231843
0.6771734961579163 -1.5595993585616748
0.6771631275074267 -1.3024347971624455
0.677136332843116 -1.044734832331631
0.6770841445874121 -0.7866346741783529
0.6770173962431331 -0.5282236275467166
0.6769811740846995 -0.26961411797104545
0.6772103442265384 -0.010964581076011
0.7166390551882654 -0.011173225117217906
0.7167926259301938 -0.2696463426898779
0.7167250113782241 -0.5282176365176049
0.7165989638277103 -0.7866171080811475
0.7164531688429372 -1.0447174394020788
0.7162874814913569 -1.3024199031302865
0.7160705548059018 -1.5595829756882411
0.715738086469416 -1.8158841877537588
0.7151645709136639 -2.0706183815644534
0.7141652411267454 -2.322525223906019
0.7125923938691072 -2.569756230129413
0.7103413134342299 -2.809973230937223
0.7073457661261454 -3.040456786832431
0.7035382614332826 -3.258196992724695
0.6988645534042377 -3.4599029416368943
0.6933300623159796 -3.642016915009629
0.6870592540680254 -3.800752491336688
0.6803592529086228 -3.932211360915509
0.6737108996352074 -4.032574176713888
0.6678074774043005 -4.098398108558069
0.6646812035661506 -4.127215701555506
0.6615549297279998 -4.098398108557925
0.6556515074970936 -4.032574176713599
0.6490031542236817 -3.932211360915092
0.642303153064285 -3.800752491336173
0.6360323448163373 -3.642016915009044
0.6304978537280853 -3.459902941636258
0.6258241456990464 -3.258196992724027
0.62201664100619 -3.04045678683175
0.6190210936981124 -2.8099732309365497
0.6167700132632409 -2.569756230128769
0.6151971660056075 -2.3225252239054175
0.614197836218692 -2.0706183815639045
0.6136243206629417 -1.8158841877532699
0.6132918523264569 -1.559582975687816
0.6130749256410022 -1.3024199031299308
0.6129092382894221 -1.0447174394017897
0.6127634433046492 -0.7866171080809269
0.6126373957541352 -0.5282176365174508
0.6125697812021657 -0.2696463426897913
0.6127233519440939 -0.011173225117200683
0.7810941403985794 -0.011332301470716892
0.7811968816780378 -0.2696770781784455
0.7811012741983301 -0.5282068375103283
0.7809188478373893 -0.7865919914788052
0.7806828177728898 -1.044687170825922
0.7803819454426576 -1.3023853040771456
0.7799622820062859 -1.5595361700688923
0.7792772634443791 -1.8157998289211905
0.778043300388364 -2.0704424049609833
0.7759376273048482 -2.3221888492161793
0.7726911156523134 -2.569206070633766
0.7681181155792456 -2.80917499095414
0.7620800895266208 -3.039384185253971
0.7544439454100849 -3.256823494569515
0.7450838346879423 -3.4582098874631386
0.7339316972538189 -3.640008234134318
0.7210625664253347 -3.798473384698398
0.7067617219739448 -3.9297591412364636
0.6915916369488821 -4.03010387900912
0.6767457224942883 -4.096266097653626
0.6646812035661342 -4.12619764939989
0.65261668463798 -4.096266097653481
0.6377707701833885 -4.030103879008831
0.6226006851583329 -3.9297591412360484