# vtk DataFile Version 3.0
Some data
ASCII
DATASET UNSTRUCTURED_GRID
POINTS 861 float
0.0 0.0 0.0
0.4 0.0 0.0
0.8 0.0 0.0
1.2000000000000002 0.0 0.0
1.6 0.0 0.0
2.0 0.0 0.0
2.4000000000000004 0.0 0.0
2.8000000000000003 0.0 0.0
3.2 0.0 0.0
3.6 0.0 0.0
4.0 0.0 0.0
4.4 0.0 0.0
4.800000000000001 0.0 0.0
5.2 0.0 0.0
5.6000000000000005 0.0 0.0
6.0 0.0 0.0
6.4 0.0 0.0
6.800000000000001 0.0 0.0
7.2 0.0 0.0
7.6000000000000005 0.0 0.0
8.0 0.0 0.0
8.4 0.0 0.0
8.8 0.0 0.0
9.200000000000001 0.0 0.0
9.600000000000001 0.0 0.0
10.0 0.0 0.0
10.4 0.0 0.0
10.8 0.0 0.0
11.200000000000001 0.0 0.0
11.600000000000001 0.0 0.0
12.0 0.0 0.0
12.4 0.0 0.0
12.8 0.0 0.0
13.200000000000001 0.0 0.0
13.600000000000001 0.0 0.0
14.0 0.0 0.0
14.4 0.0 0.0
14.8 0.0 0.0
15.200000000000001 0.0 0.0
15.600000000000001 0.0 0.0
16.0 0.0 0.0
0.0 0.1 0.0
0.4 0.1 0.0
0.8 0.1 0.0
1.2000000000000002 0.1 0.0
1.6 0.1 0.0
2.0 0.1 0.0
2.4000000000000004 0.1 0.0
2.8000000000000003 0.1 0.0
3.2 0.1 0.0
3.6 0.1 0.0
4.0 0.1 0.0
4.4 0.1 0.0
4.800000000000001 0.1 0.0
5.2 0.1 0.0
5.6000000000000005 0.1 0.0
6.0 0.1 0.0
6.4 0.1 0.0
6.800000000000001 0.1 0.0
7.2 0.1 0.0
7.6000000000000005 0.1 0.0
8.0 0.1 0.0
8.4 0.1 0.0
8.8 0.1 0.0
9.200000000000001 0.1 0.0
9.600000000000001 0.1 0.0
10.0 0.1 0.0
10.4 0.1 0.0
10.8 0.1 0.0
11.200000000000001 0.1 0.0
11.600000000000001 0.1 0.0
12.0 0.1 0.0
12.4 0.1 0.0
12.8 0.1 0.0
13.200000000000001 0.1 0.0
13.600000000000001 0.1 0.0
14.0 0.1 0.0
14.4 0.1 0.0
14.8 0.1 0.0
15.200000000000001 0.1 0.0
15.600000000000001 0.1 0.0
16.0 0.1 0.0
0.0 0.2 0.0
0.4 0.2 0.0
0.8 0.2 0.0
1.2000000000000002 0.2 0.0
1.6 0.2 0.0
2.0 0.2 0.0
2.4000000000000004 0.2 0.0
2.8000000000000003 0.2 0.0
3.2 0.2 0.0
3.6 0.2 0.0
4.0 0.2 0.0
4.4 0.2 0.0
4.800000000000001 0.2 0.0
5.2 0.2 0.0
5.6000000000000005 0.2 0.0
6.0 0.2 0.0
6.4 0.2 0.0
6.800000000000001 0.2 0.0
7.2 0.2 0.0
7.6000000000000005 0.2 0.0
8.0 0.2 0.0
8.4 0.2 0.0
8.8 0.2 0.0
9.200000000000001 0.2 0.0
9.600000000000001 0.2 0.0
10.0 0.2 0.0
10.4 0.2 0.0
10.8 0.2 0.0
11.200000000000001 0.2 0.0
11.600000000000001 0.2 0.0
12.0 0.2 0.0
12.4 0.2 0.0
12.8 0.2 0.0
13.200000000000001 0.2 0.0
13.600000000000001 0.2 0.0
14.0 0.2 0.0
14.4 0.2 0.0
14.8 0.2 0.0
15.200000000000001 0.2 0.0
15.600000000000001 0.2 0.0
16.0 0.2 0.0
0.0 0.30000000000000004 0.0
0.4 0.30000000000000004 0.0
0.8 0.30000000000000004 0.0
1.2000000000000002 0.30000000000000004 0.0
1.6 0.30000000000000004 0.0
2.0 0.30000000000000004 0.0
2.4000000000000004 0.30000000000000004 0.0
2.8000000000000003 0.30000000000000004 0.0
3.2 0.30000000000000004 0.0
3.6 0.30000000000000004 0.0
4.0 0.30000000000000004 0.0
4.4 0.30000000000000004 0.0
4.800000000000001 0.30000000000000004 0.0
5.2 0.30000000000000004 0.0
5.6000000000000005 0.30000000000000004 0.0
6.0 0.30000000000000004 0.0
6.4 0.30000000000000004 0.0
6.800000000000001 0.30000000000000004 0.0
7.2 0.30000000000000004 0.0
7.6000000000000005 0.30000000000000004 0.0
8.0 0.30000000000000004 0.0
8.4 0.30000000000000004 0.0
8.8 0.30000000000000004 0.0
9.200000000000001 0.30000000000000004 0.0
9.600000000000001 0.30000000000000004 0.0
10.0 0.30000000000000004 0.0
10.4 0.30000000000000004 0.0
10.8 0.30000000000000004 0.0
11.200000000000001 0.30000000000000004 0.0
11.600000000000001 0.30000000000000004 0.0
12.0 0.30000000000000004 0.0
12.4 0.30000000000000004 0.0
12.8 0.30000000000000004 0.0
13.200000000000001 0.30000000000000004 0.0
13.600000000000001 0.30000000000000004 0.0
14.0 0.30000000000000004 0.0
14.4 0.30000000000000004 0.0
14.8 0.30000000000000004 0.0
15.200000000000001 0.30000000000000004 0.0
15.600000000000001 0.30000000000000004 0.0
16.0 0.30000000000000004 0.0
0.0 0.4 0.0
0.4 0.4 0.0
0.8 0.4 0.0
1.2000000000000002 0.4 0.0
1.6 0.4 0.0
2.0 0.4 0.0
2.4000000000000004 0.4 0.0
2.8000000000000003 0.4 0.0
3.2 0.4 0.0
3.6 0.4 0.0
4.0 0.4 0.0
4.4 0.4 0.0
4.800000000000001 0.4 0.0
5.2 0.4 0.0
5.6000000000000005 0.4 0.0
6.0 0.4 0.0
6.4 0.4 0.0
6.800000000000001 0.4 0.0
7.2 0.4 0.0
7.6000000000000005 0.4 0.0
8.0 0.4 0.0
8.4 0.4 0.0
8.8 0.4 0.0
9.200000000000001 0.4 0.0
9.600000000000001 0.4 0.0
10.0 0.4 0.0
10.4 0.4 0.0
10.8 0.4 0.0
11.200000000000001 0.4 0.0
11.600000000000001 0.4 0.0
12.0 0.4 0.0
12.4 0.4 0.0
12.8 0.4 0.0
13.200000000000001 0.4 0.0
13.600000000000001 0.4 0.0
14.0 0.4 0.0
14.4 0.4 0.0
14.8 0.4 0.0
15.200000000000001 0.4 0.0
15.600000000000001 0.4 0.0
16.0 0.4 0.0
0.0 0.5 0.0
0.4 0.5 0.0
0.8 0.5 0.0
1.2000000000000002 0.5 0.0
1.6 0.5 0.0
2.0 0.5 0.0
2.4000000000000004 0.5 0.0
2.8000000000000003 0.5 0.0
3.2 0.5 0.0
3.6 0.5 0.0
4.0 0.5 0.0
4.4 0.5 0.0
4.800000000000001 0.5 0.0
5.2 0.5 0.0
5.6000000000000005 0.5 0.0
6.0 0.5 0.0
6.4 0.5 0.0
6.800000000000001 0.5 0.0
7.2 0.5 0.0
7.6000000000000005 0.5 0.0
8.0 0.5 0.0
8.4 0.5 0.0
8.8 0.5 0.0
9.200000000000001 0.5 0.0
9.600000000000001 0.5 0.0
10.0 0.5 0.0
10.4 0.5 0.0
10.8 0.5 0.0
11.200000000000001 0.5 0.0
11.600000000000001 0.5 0.0
12.0 0.5 0.0
12.4 0.5 0.0
12.8 0.5 0.0
13.200000000000001 0.5 0.0
13.600000000000001 0.5 0.0
14.0 0.5 0.0
14.4 0.5 0.0
14.8 0.5 0.0
15.200000000000001 0.5 0.0
15.600000000000001 0.5 0.0
16.0 0.5 0.0
0.0 0.6000000000000001 0.0
0.4 0.6000000000000001 0.0
0.8 0.6000000000000001 0.0
1.2000000000000002 0.6000000000000001 0.0
1.6 0.6000000000000001 0.0
2.0 0.6000000000000001 0.0
2.4000000000000004 0.6000000000000001 0.0
2.8000000000000003 0.6000000000000001 0.0
3.2 0.6000000000000001 0.0
3.6 0.6000000000000001 0.0
4.0 0.6000000000000001 0.0
4.4 0.6000000000000001 0.0
4.800000000000001 0.6000000000000001 0.0
5.2 0.6000000000000001 0.0
5.6000000000000005 0.6000000000000001 0.0
6.0 0.6000000000000001 0.0
6.4 0.6000000000000001 0.0
6.800000000000001 0.6000000000000001 0.0
7.2 0.6000000000000001 0.0
7.6000000000000005 0.6000000000000001 0.0
8.0 0.6000000000000001 0.0
8.4 0.6000000000000001 0.0
8.8 0.6000000000000001 0.0
9.200000000000001 0.6000000000000001 0.0
9.600000000000001 0.6000000000000001 0.0
10.0 0.6000000000000001 0.0
10.4 0.6000000000000001 0.0
10.8 0.6000000000000001 0.0
11.200000000000001 0.6000000000000001 0.0
11.600000000000001 0.6000000000000001 0.0
12.0 0.6000000000000001 0.0
12.4 0.6000000000000001 0.0
12.8 0.6000000000000001 0.0
13.200000000000001 0.6000000000000001 0.0
13.600000000000001 0.6000000000000001 0.0
14.0 0.6000000000000001 0.0
14.4 0.6000000000000001 0.0
14.8 0.6000000000000001 0.0
15.200000000000001 0.6000000000000001 0.0
15.600000000000001 0.6000000000000001 0.0
16.0 0.6000000000000001 0.0
0.0 0.7000000000000001 0.0
0.4 0.7000000000000001 0.0
0.8 0.7000000000000001 0.0
1.2000000000000002 0.7000000000000001 0.0
1.6 0.7000000000000001 0.0
2.0 0.7000000000000001 0.0
2.4000000000000004 0.7000000000000001 0.0
2.8000000000000003 0.7000000000000001 0.0
3.2 0.7000000000000001 0.0
3.6 0.7000000000000001 0.0
4.0 0.7000000000000001 0.0
4.4 0.7000000000000001 0.0
4.800000000000001 0.7000000000000001 0.0
5.2 0.7000000000000001 0.0
5.6000000000000005 0.7000000000000001 0.0
6.0 0.7000000000000001 0.0
6.4 0.7000000000000001 0.0
6.800000000000001 0.7000000000000001 0.0
7.2 0.7000000000000001 0.0
7.6000000000000005 0.7000000000000001 0.0
8.0 0.7000000000000001 0.0
8.4 0.7000000000000001 0.0
8.8 0.7000000000000001 0.0
9.200000000000001 0.7000000000000001 0.0
9.600000000000001 0.7000000000000001 0.0
10.0 0.7000000000000001 0.0
10.4 0.7000000000000001 0.0
10.8 0.7000000000000001 0.0
11.200000000000001 0.7000000000000001 0.0
11.600000000000001 0.7000000000000001 0.0
12.0 0.7000000000000001 0.0
12.4 0.7000000000000001 0.0
12.8 0.7000000000000001 0.0
13.200000000000001 0.7000000000000001 0.0
13.600000000000001 0.7000000000000001 0.0
14.0 0.7000000000000001 0.0
14.4 0.7000000000000001 0.0
14.8 0.7000000000000001 0.0
15.200000000000001 0.7000000000000001 0.0
15.600000000000001 0.7000000000000001 0.0
16.0 0.7000000000000001 0.0
0.0 0.8 0.0
0.4 0.8 0.0
0.8 0.8 0.0
1.2000000000000002 0.8 0.0
1.6 0.8 0.0
2.0 0.8 0.0
2.4000000000000004 0.8 0.0
2.8000000000000003 0.8 0.0
3.2 0.8 0.0
3.6 0.8 0.0
4.0 0.8 0.0
4.4 0.8 0.0
4.800000000000001 0.8 0.0
5.2 0.8 0.0
5.6000000000000005 0.8 0.0
6.0 0.8 0.0
6.4 0.8 0.0
6.800000000000001 0.8 0.0
7.2 0.8 0.0
7.6000000000000005 0.8 0.0
8.0 0.8 0.0
8.4 0.8 0.0
8.8 0.8 0.0
9.200000000000001 0.8 0.0
9.600000000000001 0.8 0.0
10.0 0.8 0.0
10.4 0.8 0.0
10.8 0.8 0.0
11.200000000000001 0.8 0.0
11.600000000000001 0.8 0.0
12.0 0.8 0.0
12.4 0.8 0.0
12.8 0.8 0.0
13.200000000000001 0.8 0.0
13.600000000000001 0.8 0.0
14.0 0.8 0.0
14.4 0.8 0.0
14.8 0.8 0.0
15.200000000000001 0.8 0.0
15.600000000000001 0.8 0.0
16.0 0.8 0.0
0.0 0.9 0.0
0.4 0.9 0.0
0.8 0.9 0.0
1.2000000000000002 0.9 0.0
1.6 0.9 0.0
2.0 0.9 0.0
2.4000000000000004 0.9 0.0
2.8000000000000003 0.9 0.0
3.2 0.9 0.0
3.6 0.9 0.0
4.0 0.9 0.0
4.4 0.9 0.0
4.800000000000001 0.9 0.0
5.2 0.9 0.0
5.6000000000000005 0.9 0.0
6.0 0.9 0.0
6.4 0.9 0.0
6.800000000000001 0.9 0.0
7.2 0.9 0.0
7.6000000000000005 0.9 0.0
8.0 0.9 0.0
8.4 0.9 0.0
8.8 0.9 0.0
9.200000000000001 0.9 0.0
9.600000000000001 0.9 0.0
10.0 0.9 0.0
10.4 0.9 0.0
10.8 0.9 0.0
11.200000000000001 0.9 0.0
11.600000000000001 0.9 0.0
12.0 0.9 0.0
12.4 0.9 0.0
12.8 0.9 0.0
13.200000000000001 0.9 0.0
13.600000000000001 0.9 0.0
14.0 0.9 0.0
14.4 0.9 0.0
14.8 0.9 0.0
15.200000000000001 0.9 0.0
15.600000000000001 0.9 0.0
16.0 0.9 0.0
0.0 1.0 0.0
0.4 1.0 0.0
0.8 1.0 0.0
1.2000000000000002 1.0 0.0
1.6 1.0 0.0
2.0 1.0 0.0
2.4000000000000004 1.0 0.0
2.8000000000000003 1.0 0.0
3.2 1.0 0.0
3.6 1.0 0.0
4.0 1.0 0.0
4.4 1.0 0.0
4.800000000000001 1.0 0.0
5.2 1.0 0.0
5.6000000000000005 1.0 0.0
6.0 1.0 0.0
6.4 1.0 0.0
6.800000000000001 1.0 0.0
7.2 1.0 0.0
7.6000000000000005 1.0 0.0
8.0 1.0 0.0
8.4 1.0 0.0
8.8 1.0 0.0
9.200000000000001 1.0 0.0
9.600000000000001 1.0 0.0
10.0 1.0 0.0
10.4 1.0 0.0
10.8 1.0 0.0
11.200000000000001 1.0 0.0
11.600000000000001 1.0 0.0
12.0 1.0 0.0
12.4 1.0 0.0
12.8 1.0 0.0
13.200000000000001 1.0 0.0
13.600000000000001 1.0 0.0
14.0 1.0 0.0
14.4 1.0 0.0
14.8 1.0 0.0
15.200000000000001 1.0 0.0
15.600000000000001 1.0 0.0
16.0 1.0 0.0
0.0 1.1 0.0
0.4 1.1 0.0
0.8 1.1 0.0
1.2000000000000002 1.1 0.0
1.6 1.1 0.0
[...]
POINT_DATA 861
SCALARS Disp float 2
LOOKUP_TABLE default
0.0 0.0
0.019977364237029192 -0.3651012738730099
0.0355829433029838 -0.6735986083320261
0.048100724169000734 -0.9768005648749173
0.06240179273725756 -1.274170990105462
0.0796013615338725 -1.565577652885725
0.10024785808575444 -1.8496280319590068
0.12456138733776254 -2.124817613615755
0.15261400086347413 -2.3895917003819425
0.18442239812446543 -2.642414709555337
0.21998408181548043 -2.8817688408445976
0.2592932946912487 -3.106150212521118
0.302346493620219 -3.314064191230334
0.3491476007310743 -3.5040233088351873
0.3997192796481694 -3.6745423229957788
0.45412359331206287 -3.824117792870208
0.5124827933233127 -3.95116979161191
0.5749587641948127 -4.053924540774195
0.6416017869008421 -4.130262835186414
0.7119781994671132 -4.177700783152163
0.7846967712267555 -4.193872220299204
0.8574153429863992 -4.177700783152163
0.9277917555526703 -4.130262835186413
0.9944347782586989 -4.053924540774192
1.0569107491301983 -3.951169791611909
1.1152699491414486 -3.824117792870207
1.169674262805342 -3.674542322995776
1.220245941722437 -3.504023308835184
1.267047048833292 -3.3140641912303312
1.3101002477622625 -3.1061502125211162
1.3494094606380307 -2.8817688408445967
1.384971144329046 -2.642414709555336
1.416779541590037 -2.389591700381941
1.4448321551157488 -2.1248176136157526
1.4691456843677566 -1.8496280319590044
1.4897921809196388 -1.5655776528857255
1.5069917497162537 -1.2741709901054616
1.5212928182845102 -0.9768005648749177
1.533810599150527 -0.6735986083320253
1.549416178216482 -0.365101273873009
1.569393542453511 0.0
0.09044051686560814 -0.012406329949676831
0.10288046557505175 -0.3641341575346719
0.11149076016031825 -0.6753504209206408
0.12308967235461744 -0.978021925433699
0.13580856050643803 -1.275780161786709
0.15133732456295962 -1.567494395297712
0.16994484169020274 -1.8519159558823535
0.19184432745128727 -2.1274824221161053
0.2170995167712668 -2.3926384703558403
0.2457300024858548 -2.6458435581857183
0.2777364815159441 -2.8855793858134007
0.3131156278071589 -3.110341966790453
0.3518656270381639 -3.3186371050221797
0.39399113237313627 -3.508978452954141
0.4395123345446766 -3.679883396688259
0.4884796964547608 -3.829853327910819
0.540984687591353 -3.957313936710799
0.5971307282670729 -4.06049010269179
0.6568947680029036 -4.137236283165593
0.7198246301900273 -4.1849959654911135
0.7846967712267556 -4.201294983803265
0.8495689122634847 -4.184995965491114
0.9124987744506082 -4.13723628316559
0.9722628141864387 -4.060490102691788
1.0284088548621584 -3.9573139367107983
1.0809138459987504 -3.829853327910818
1.1298812079088347 -3.6798833966882567
1.175402410080375 -3.508978452954138
1.217527915415347 -3.318637105022177
1.2562779146463523 -3.1103419667904513
1.291657060937567 -2.8855793858134002
1.3236635399676566 -2.645843558185717
1.3522940256822444 -2.392638470355839
1.3775492150022237 -2.1274824221161035
1.3994487007633085 -1.8519159558823513
1.4180562178905516 -1.5674943952977125
1.4335849819470732 -1.2757801617867084
1.4463038700988937 -0.9780219254336994
1.457902782293193 -0.6753504209206402
1.4665130768784593 -0.36413415753467093
1.478953025587903 -0.012406329949676897
0.17472295444389832 -0.023063028725395274
0.18364559087771554 -0.36342487682928143
0.18827960446215067 -0.6763156449535442
0.19756645737983183 -0.9792109558184374
0.20884470865958743 -1.2771733032349886
0.2225872333519489 -1.5692158329342585
0.23914169730939833 -1.8539616213935026
0.2586162960256896 -2.1298679298947194
0.2810723734726871 -2.395364959601114
0.3065250817152208 -2.648911790130049
0.3349770020977263 -2.8889889953812125
0.3664264669390084 -3.114092661759506
0.4008727888152582 -3.3227288567558313
0.43832003900474437 -3.5134120196910295
0.4787835077927032 -3.6846613797766166
0.5222995360980444 -3.8349818220329563
0.5689312212055997 -3.962803313019127
0.6187423425453353 -4.0663500715258705
0.6716848121797029 -4.143456439207823
0.7273534435019535 -4.19150594765317
0.7846967712267557 -4.207924250545465
0.8420400989515582 -4.191505947653171
0.8977087302738086 -4.143456439207821
0.9506511999081763 -4.06635007152587
1.0004623212479118 -3.9628033130191263
1.0470940063554668 -3.8349818220329555
1.090610034660808 -3.6846613797766143
1.131073503448767 -3.513412019691027
1.168520753638253 -3.32272885675583
1.202967075514503 -3.114092661759505
1.234416540355785 -2.8889889953812116
1.2628684607382905 -2.648911790130048
1.288321168980824 -2.395364959601112
1.3107772464278218 -2.129867929894718
1.330251845144113 -1.8539616213935006
1.346806309101562 -1.569215832934259
1.3605488337939238 -1.2771733032349881
1.3718270850736793 -0.9792109558184381
1.3811139379913606 -0.6763156449535436
1.3857479515757956 -0.36342487682928043
1.3946705880096126 -0.02306302872539539
0.25536680876930695 -0.032171233130681584
0.2624543836013756 -0.36321632737263504
0.2649115636495305 -0.6767430794347618
0.27182378195515755 -0.9801933759657262
0.2814675737507839 -1.2783856096688297
0.2934230643943359 -1.5707217533165279
0.307891335400071 -1.85576597253089
0.3249361210740986 -2.1319724545345387
0.3445900199060592 -2.397771255693048
0.3668648889007752 -2.6516194344585715
0.3917625292081002 -2.8919977695187917
0.41928247605468194 -3.1174022974362576
0.4494245458784833 -3.3263392168741954
0.4821912338407204 -3.5173232409704234
0.5175913233782973 -3.688874518665542
0.5556458927440189 -3.83950038690337
0.5963931871451505 -3.9676354398831397
0.6398743755121498 -4.071508031644163
0.6860552221942402 -4.148943802578869
0.7346241073066735 -4.197276860925679
0.7846967712267557 -4.213820585641793
0.8347694351468379 -4.197276860925679
0.8833383202592711 -4.148943802578868
0.9295191669413619 -4.0715080316441625
0.9730003553083608 -3.967635439883139
1.0137476497094922 -3.839500386903369
1.051802219075214 -3.6888745186655396
1.0872023086127909 -3.5173232409704207
1.1199689965750277 -3.3263392168741936
1.1501110663988294 -3.1174022974362563
1.1776310132454109 -2.8919977695187904
1.2025286535527362 -2.6516194344585706
1.2248035225474518 -2.3977712556930464
1.2444574213794126 -2.1319724545345378
1.2615022070534403 -1.8557659725308877
1.275970478059175 -1.5707217533165283
1.2879259687027271 -1.2783856096688293
1.2975697604983536 -0.980193375965727
1.3044819788039808 -0.676743079434761
1.3069391588521355 -0.36321632737263404
1.314026733684204 -0.03217123313068171
0.3336857098730568 -0.03992892928572558
0.3396677779559009 -0.36348287248108474
0.34096576475283574 -0.6768629543162304
0.34583716434880746 -0.9809193815951649
0.3537363496940086 -1.279406433791646
0.36388441961587686 -1.572011154932511
0.3762532394017116 -1.8573252661298962
0.39086028064830686 -2.1337957992066983
0.4077101636559733 -2.3998570261524135
0.4268065489751348 -2.6539665511117314
0.4481499860718329 -2.8946057379384964
0.47174037687957493 -3.1202708529363443
0.49757762110593845 -3.3294679822691227
0.5256619596071944 -3.520711534717384
0.5559948315341579 -3.692521598986122
0.5885819366044895 -3.843407224174219
0.6234403699836033 -3.971809341003212
0.66060260690724 -4.075968400770779
0.7000781196059076 -4.153716558445325
0.7416833427255526 -4.202347183864818
0.7846967712267554 -4.219034465863749
0.8277101997279586 -4.202347183864817
0.8693154228476038 -4.153716558445324
0.9087909355462713 -4.075968400770777
0.9459531724699082 -3.9718093410032105
0.9808116058490214 -3.8434072241742183
1.0133987109193534 -3.6925215989861204
1.0437315828463167 -3.520711534717381
1.0718159213475729 -3.3294679822691213
1.0976531655739363 -3.120270852936343
1.1212435563816785 -2.8946057379384955
1.1425869934783763 -2.6539665511117305
1.1616833787975378 -2.399857026152412
1.1785332618052042 -2.133795799206697
1.1931403030517995 -1.8573252661298942
1.2055091228376342 -1.5720111549325115
1.2156571927595026 -1.2794064337916458
1.2235563781047036 -0.9809193815951658
1.2284277777006753 -0.6768629543162298
1.22972576449761 -0.36348287248108385
1.2357078325804545 -0.03992892928572572
0.41043427833013535 -0.046518170940895866
0.41563266872819876 -0.3641151484410028
0.4163183467066396 -0.676834452497214
0.4195395554385561 -0.9814014788326726
0.4256985604244932 -1.280223476154464
0.43401846150535867 -1.5730835507556473
0.4442822266078441 -1.85863777155353
0.4564460995499227 -2.1353373279897445
0.4704899871744347 -2.401622130490288
0.4864072404317307 -2.6559530921928873
0.504196280632791 -2.8968129087625845
0.5238569497172748 -3.122698288029048
0.5453888566855779 -3.3321150020169563
0.5687896785722141 -3.5235765376611217
0.5940533582853111 -3.6956019573904864
0.6211708506751605 -3.8467015030882665
0.6501413137699834 -3.975325058445326
0.6809984550407993 -4.079735397426788
0.7138169666917481 -4.1577895746410105
0.7485690836438217 -4.2067487889687465
0.7846967712267554 -4.223609300712223
0.8208244588096896 -4.206748788968746
0.8555765757617633 -4.1577895746410105
0.8883950874127118 -4.079735397426787
0.9192522286835278 -3.975325058445325
0.9482226917783505 -3.8467015030882656
0.9753401841682001 -3.695601957390485
1.000603863881297 -3.52357653766112
1.0240046857679335 -3.332115002016955
1.0455365927362363 -3.122698288029046
1.0651972618207204 -2.896812908762584
1.0829863020217803 -2.6559530921928864
1.0989035552790765 -2.4016221304902867
1.1129474429035886 -2.135337327989743
1.125111315845667 -1.858637771553528
1.1353750809481524 -1.573083550755648
1.1436949820290179 -1.2802234761544637
1.1498539870149551 -0.9814014788326734
1.1530751957468715 -0.6768344524972132
1.1537608737253122 -0.36411514844100185
1.158959264123376 -0.046518170940896046
0.4860830868974502 -0.052097257125429376
0.4906393670036275 -0.3649917594339516
0.49098609935271614 -0.6767523873236209
0.4928921799943143 -0.9816753134934161
0.4973872207334025 -1.280833775077408
0.5038755116452126 -1.573938063992971
0.5120321833372393 -1.8597030932295333
0.5217504501143807 -2.1365965453181652
0.5329866375120419 -2.403066429371389
0.5457240486898542 -2.6575789940255308
0.5599583374582772 -2.8986192525333223
0.5756890109531668 -3.124684559651779
0.5929151783228824 -3.3342801886332762
0.6116319612059425 -3.5259181170245832
0.6318262731305565 -3.698115464645698
0.6534755255845899 -3.8493832408461293
0.6765632679111083 -3.978183274820519
0.7011298364970353 -4.0828122886469735
0.7273288892300808 -4.1611737489703975
0.7553130474527054 -4.210507688959338
0.7846967712267553 -4.227583700344603
0.8140804950008057 -4.210507688959337
0.8420646532234305 -4.161173748970396
0.8682637059564758 -4.082812288646973
0.8928302745424029 -3.978183274820518
0.9159180168689213 -3.849383240846129
0.9375672693229545 -3.6981154646456966
0.9577615812475687 -3.5259181170245815
0.9764783641306287 -3.334280188633275
0.9937045315003443 -3.1246845596517776
1.009435204995234 -2.8986192525333214
1.0236694937636568 -2.6575789940255294
1.0364069049414693 -2.4030664293713877
1.0476430923391304 -2.136596545318164
1.0573613591162716 -1.8597030932295315
1.0655180308082985 -1.5739380639929714
1.0720063217201086 -1.2808337750774077
1.0765013624591968 -0.9816753134934169
1.0784074431007948 -0.6767523873236201
1.0787541754498837 -0.3649917594339507
1.0833104555560609 -0.052097257125429584
0.5609467549113548 -0.05679927444977567
0.5649223588629413 -0.36600513449544647
0.5650490683261805 -0.6766652032711047
0.5658941307021169 -0.9817796801974118
0.5688320930206113 -1.2812430672400035
0.5735055934381982 -1.5745749730264653
0.5795573688123362 -1.860521488954476
0.5868297960760912 -2.1375732877788884
0.5952571905076061 -2.404189790094278
0.6048140045530805 -2.658844181277542
0.6154930745891691 -2.900024715745191
0.6272934054050051 -3.1262296259586613
0.640213555127792 -3.335963522759829
0.6542463830925593 -3.527736361155802
0.6693727775520981 -3.7000624861195828
0.6855583045512313 -3.8514532000171906
0.702772244647617 -3.9803850642364935
0.7210621630409206 -4.085200900869663
0.7406667599297316 -4.163875511554924
0.7619425410139835 -4.213644460402099
0.7846967712267554 -4.2309933750669435
0.8074510014395275 -4.213644460402099
0.8287267825237796 -4.163875511554922
0.8483313794125904 -4.085200900869663
0.866621297805894 -3.9803850642364917
0.8838352379022798 -3.85145320001719
0.9000207649014129 -3.7000624861195814
0.915147159360952 -3.5277363611558004
0.9291799873257189 -3.335963522759828
0.942100137048506 -3.1262296259586604
0.953900467864342 -2.9000247157451904
0.9645795379004306 -2.658844181277541
0.9741363519459051 -2.404189790094277
0.98256374637742 -2.1375732877788876
0.9898361736411749 -1.8605214889544741
0.9958879490153129 -1.5745749730264658
1.0005614494328998 -1.2812430672400033
1.003499411751394 -0.9817796801974125
1.0043444741273306 -0.6766652032711038
1.0044711835905697 -0.3660051344954456
1.008446787542156 -0.056799274449775894
0.6352489001924391 -0.060734478373317476
0.6386710400449945 -0.36706866364379775
0.6386124178108655 -0.6765912908261534
0.638575465524894 -0.9817479531927058
0.6400673180834107 -1.2814623514092782
0.642958342351652 -1.574996464184309
0.6469124485073433 -1.8610937106525047
0.6517404916305071 -2.138267677917751
0.6573586164675377 -2.4049921266210657
0.6637340989659797 -2.659748565934348
0.670857396551756 -2.9010292297934965
0.6787269926835503 -3.1273334498019767
0.6873409651473048 -3.3371650485648554
0.6966904350100003 -3.529031552643835
0.70675171804384 -3.7014438218573336
0.7174807529404347 -3.852912808376976
0.7288331173400853 -3.9819317858080505
0.7408593934250869 -4.086901375667847
0.7538811435376485 -4.165896375968198
0.7684818495694153 -4.216174317390004
0.7846967712267553 -4.233872919880863
0.8009116928840957 -4.216174317390003
0.8155123989158626 -4.165896375968198
0.8285341490284243 -4.086901375667845
0.8405604251134259 -3.981931785808049
0.8519127895130766 -3.852912808376975
0.8626418244096712 -3.7014438218573322
0.872703107443511 -3.5290315526438336
0.8820525773062063 -3.337165048564855
0.890666549769961 -3.1273334498019754
0.8985361459017552 -2.901029229793496
0.9056594434875315 -2.659748565934347
0.9120349259859735 -2.4049921266210648
0.917653050823004 -2.1382676779177503
0.922481093946168 -1.8610937106525025
0.9264352001018592 -1.5749964641843097
0.9293262243701006 -1.2814623514092778
0.9308180769286171 -0.9817479531927066
0.9307811246426455 -0.6765912908261527
0.9307225024085165 -0.36706866364379687
0.934144642261072 -0.0607344783733177
0.7091574049389604 -0.06399431309744674
0.7120406963208795 -0.36811647316580115
0.7117880013942627 -0.6765310519873718
0.7109878434102371 -0.9816054699736099
0.7111345354071078 -1.281504700643799
0.7122841438342244 -1.5752064981088805
0.7141524380483403 -1.861421009502307
0.716538952474734 -2.1386800452471353
0.7193478073747211 -2.405473410374018
0.7225412796214283 -2.6602920532633902
0.7261081924962806 -2.901632715476833
0.7300466347176366 -3.1279960003378164
0.7343543666081418 -3.337884862477513
0.739021453062487 -3.5298041265282687
0.7440214288585792 -3.702260625883661
0.7493034285242306 -3.8537640965534345
0.7548096780348591 -3.9828251244671953
0.7605850781219446 -4.0879121741336295
0.767022246503432 -4.167232491380662
0.7749534470179753 -4.218106771680412
0.7846967712267554 -4.236257689727598
0.7944400954355356 -4.218106771680412
0.8023712959500792 -4.167232491380662
0.8088084643315664 -4.0879121741336295
0.8145838644186519 -3.9828251244671944
0.8200901139292806 -3.8537640965534337
0.8253721135949319 -3.7022606258836595
0.8303720893910242 -3.5298041265282674
0.8350391758453694 -3.337884862477512
0.8393469077358745 -3.1279960003378147
0.8432853499572305 -2.901632715476833
0.8468522628320829 -2.6602920532633894
0.85004573507879 -2.405473410374017
0.8528545899787772 -2.1386800452471344
0.855241104405171 -1.8614210095023047
0.8571093986192867 -1.575206498108881
0.8582590070464033 -1.2815047006437985
0.8584056990432739 -0.9816054699736105
0.8576055410592484 -0.676531051987371
0.8573528461326315 -0.3681164731658002
0.8602361375145507 -0.06399431309744698
0.7828045252629079 -0.06665577867168394
0.7851613376710519 -0.36910066171249484
0.7846858370657044 -0.6764750815399735
0.7831966583294275 -0.9813697096561753
0.7820832509477867 -1.2813830682215075
0.7815352244014131 -1.5752102278286564
0.7813328085498905 -1.8615050910188702
0.781281723213726 -2.138810863182586
0.7812816150079719 -2.405633658243177
0.7812924492121593 -2.6604745475227096
0.7813023334775202 -2.9018350865407014
0.7813091866600474 -3.1282172521116505
0.7813106761439671 -3.338123097545717
0.7812965732654661 -3.530054617704302
0.7812396149107236 -3.702514302394624
0.7810856357779162 -3.8540096367234624
0.7807645611370317 -3.9830672734121353
0.7803033276904486 -4.088230365473485
0.7801420370209788 -4.167874198643612
0.7813792436509023 -4.219444758151439
0.7846967712267555 -4.238185966446095
0.7880142988026088 -4.219444758151439
0.7892515054325323 -4.167874198643613
0.7890902147630622 -4.088230365473484
0.7886289813164791 -3.983067273412135
0.788307906675595 -3.8540096367234615
0.7881539275427876 -3.7025143023946234
0.7880969691880452 -3.5300546177043004
0.788082866309544 -3.338123097545716
0.7880843557934638 -3.128217252111649
0.7880912089759909 -2.9018350865407014
0.7881010932413518 -2.6604745475227087
0.7881119274455393 -2.405633658243176
0.7881118192397851 -2.1388108631825853
0.7880607339036206 -1.861505091018868
0.787858318052098 -1.5752102278286566
0.7873102915057243 -1.281383068221507
0.7861968841240835 -0.9813697096561759
0.7847077053878067 -0.6764750815399726
0.7842322047824591 -0.3691006617124939
0.7865890171906031 -0.06665577867168417
0.856298686817967 -0.06878552562649848
0.8581441784295868 -0.3699880056013752
0.8574105218542427 -0.6764094415019833
0.8552753675926054 -0.9810516015489041
0.8529699388332168 -1.2811090364624538
0.8507662972132195 -1.5750133103287893
0.8485096703197683 -1.861347973520302
0.8460255054494663 -2.138660691871965
0.8432168744840043 -2.405472912106671
0.8400444673079566 -2.6602959542670654
0.8364966699055072 -2.901636253090767
0.8325714914197332 -3.127997182242207
0.8282667545792195 -3.3378799052690677
0.8235727117442102 -3.5297836033640455
0.8184632912206993 -3.70220637736082
0.8128851663932539 -3.8536524514083212
0.8067589262707454 -3.982661234983509
0.8000795878503203 -4.087852272519318
0.7932967263745193 -4.167805657159925
0.7877821369686627 -4.2201830213210885
0.7846967712267556 -4.239701640720322
0.7816114054848483 -4.220183021321089
0.7760968160789917 -4.167805657159925
0.7693139546031905 -4.087852272519318
0.7626346161827657 -3.982661234983508
0.7565083760602572 -3.8536524514083204
0.7509302512328119 -3.7022063773608194
0.7458208307093008 -3.5297836033640433
0.7411267878742915 -3.337879905269067
0.7368220510337778 -3.1279971822422055
0.7328968725480041 -2.9016362530907664
0.7293490751455546 -2.6602959542670646
0.7261766679695069 -2.40547291210667
0.723368037004045 -2.1386606918719644
0.7208838721337428 -1.8613479735202998
0.7186272452402916 -1.57501331032879
0.7164236036202942 -1.281109036462453
0.7141181748609057 -0.9810516015489048
0.7119830205992683 -0.6764094415019825
0.7112493640239244 -0.36998800560137424
0.7130948556355442 -0.06878552562649871
0.9297314132818199 -0.07044344344980175
0.931086113672403 -0.3707569131694137
0.930060067135847 -0.6763189509190297
0.9273017614289923 -0.9806571470006715
0.9238567623524246 -1.2806922496468045
0.9200347648024786 -1.5746212857325166
0.915739922769638 -1.860951777423553
0.9108271710982837 -2.138230114150514
0.9052104110512745 -2.4049912171869297
0.898854152320254 -2.659756180170974
0.891748030357854 -2.90103612490047
0.8838903785256293 -3.1273357665773522
0.8752794004874196 -3.337155436070948
0.8659065660504791 -3.5289916478007664
0.8557487982673035 -3.701338349972996
0.8447580655422874 -3.8526958472631945
0.832851785256667 -3.98161118197095
0.8199809954790229 -4.086774585837808
0.806549827937297 -4.167004713186337
0.7941882776337689 -4.220305439069816
0.7846967712267556 -4.240857669910271
0.7752052648197422 -4.220305439069816
0.7628437145162139 -4.167004713186337
0.749412546974488 -4.086774585837809
0.736541757196844 -3.981611181970949
0.7246354769112238 -3.852695847263193