# vtk DataFile Version 3.0
Some data
ASCII
DATASET UNSTRUCTURED_GRID
POINTS 861 float
0.0 0.0 0.0
0.4 0.0 0.0
0.8 0.0 0.0
1.2000000000000002 0.0 0.0
1.6 0.0 0.0
2.0 0.0 0.0
2.4000000000000004 0.0 0.0
2.8000000000000003 0.0 0.0
3.2 0.0 0.0
3.6 0.0 0.0
4.0 0.0 0.0
4.4 0.0 0.0
4.800000000000001 0.0 0.0
5.2 0.0 0.0
5.6000000000000005 0.0 0.0
6.0 0.0 0.0
6.4 0.0 0.0
6.800000000000001 0.0 0.0
7.2 0.0 0.0
7.6000000000000005 0.0 0.0
8.0 0.0 0.0
8.4 0.0 0.0
8.8 0.0 0.0
9.200000000000001 0.0 0.0
9.600000000000001 0.0 0.0
10.0 0.0 0.0
10.4 0.0 0.0
10.8 0.0 0.0
11.200000000000001 0.0 0.0
11.600000000000001 0.0 0.0
12.0 0.0 0.0
12.4 0.0 0.0
12.8 0.0 0.0
13.200000000000001 0.0 0.0
13.600000000000001 0.0 0.0
14.0 0.0 0.0
14.4 0.0 0.0
14.8 0.0 0.0
15.200000000000001 0.0 0.0
15.600000000000001 0.0 0.0
16.0 0.0 0.0
0.0 0.1 0.0
0.4 0.1 0.0
0.8 0.1 0.0
1.2000000000000002 0.1 0.0
1.6 0.1 0.0
2.0 0.1 0.0
2.4000000000000004 0.1 0.0
2.8000000000000003 0.1 0.0
3.2 0.1 0.0
3.6 0.1 0.0
4.0 0.1 0.0
4.4 0.1 0.0
4.800000000000001 0.1 0.0
5.2 0.1 0.0
5.6000000000000005 0.1 0.0
6.0 0.1 0.0
6.4 0.1 0.0
6.800000000000001 0.1 0.0
7.2 0.1 0.0
7.6000000000000005 0.1 0.0
8.0 0.1 0.0
8.4 0.1 0.0
8.8 0.1 0.0
9.200000000000001 0.1 0.0
9.600000000000001 0.1 0.0
10.0 0.1 0.0
10.4 0.1 0.0
10.8 0.1 0.0
11.200000000000001 0.1 0.0
11.600000000000001 0.1 0.0
12.0 0.1 0.0
12.4 0.1 0.0
12.8 0.1 0.0
13.200000000000001 0.1 0.0
13.600000000000001 0.1 0.0
14.0 0.1 0.0
14.4 0.1 0.0
14.8 0.1 0.0
15.200000000000001 0.1 0.0
15.600000000000001 0.1 0.0
16.0 0.1 0.0
0.0 0.2 0.0
0.4 0.2 0.0
0.8 0.2 0.0
1.2000000000000002 0.2 0.0
1.6 0.2 0.0
2.0 0.2 0.0
2.4000000000000004 0.2 0.0
2.8000000000000003 0.2 0.0
3.2 0.2 0.0
3.6 0.2 0.0
4.0 0.2 0.0
4.4 0.2 0.0
4.800000000000001 0.2 0.0
5.2 0.2 0.0
5.6000000000000005 0.2 0.0
6.0 0.2 0.0
6.4 0.2 0.0
6.800000000000001 0.2 0.0
7.2 0.2 0.0
7.6000000000000005 0.2 0.0
8.0 0.2 0.0
8.4 0.2 0.0
8.8 0.2 0.0
9.200000000000001 0.2 0.0
9.600000000000001 0.2 0.0
10.0 0.2 0.0
10.4 0.2 0.0
10.8 0.2 0.0
11.200000000000001 0.2 0.0
11.600000000000001 0.2 0.0
12.0 0.2 0.0
12.4 0.2 0.0
12.8 0.2 0.0
13.200000000000001 0.2 0.0
13.600000000000001 0.2 0.0
14.0 0.2 0.0
14.4 0.2 0.0
14.8 0.2 0.0
15.200000000000001 0.2 0.0
15.600000000000001 0.2 0.0
16.0 0.2 0.0
0.0 0.30000000000000004 0.0
0.4 0.30000000000000004 0.0
0.8 0.30000000000000004 0.0
1.2000000000000002 0.30000000000000004 0.0
1.6 0.30000000000000004 0.0
2.0 0.30000000000000004 0.0
2.4000000000000004 0.30000000000000004 0.0
2.8000000000000003 0.30000000000000004 0.0
3.2 0.30000000000000004 0.0
3.6 0.30000000000000004 0.0
4.0 0.30000000000000004 0.0
4.4 0.30000000000000004 0.0
4.800000000000001 0.30000000000000004 0.0
5.2 0.30000000000000004 0.0
5.6000000000000005 0.30000000000000004 0.0
6.0 0.30000000000000004 0.0
6.4 0.30000000000000004 0.0
6.800000000000001 0.30000000000000004 0.0
7.2 0.30000000000000004 0.0
7.6000000000000005 0.30000000000000004 0.0
8.0 0.30000000000000004 0.0
8.4 0.30000000000000004 0.0
8.8 0.30000000000000004 0.0
9.200000000000001 0.30000000000000004 0.0
9.600000000000001 0.30000000000000004 0.0
10.0 0.30000000000000004 0.0
10.4 0.30000000000000004 0.0
10.8 0.30000000000000004 0.0
11.200000000000001 0.30000000000000004 0.0
11.600000000000001 0.30000000000000004 0.0
12.0 0.30000000000000004 0.0
12.4 0.30000000000000004 0.0
12.8 0.30000000000000004 0.0
13.200000000000001 0.30000000000000004 0.0
13.600000000000001 0.30000000000000004 0.0
14.0 0.30000000000000004 0.0
14.4 0.30000000000000004 0.0
14.8 0.30000000000000004 0.0
15.200000000000001 0.30000000000000004 0.0
15.600000000000001 0.30000000000000004 0.0
16.0 0.30000000000000004 0.0
0.0 0.4 0.0
0.4 0.4 0.0
0.8 0.4 0.0
1.2000000000000002 0.4 0.0
1.6 0.4 0.0
2.0 0.4 0.0
2.4000000000000004 0.4 0.0
2.8000000000000003 0.4 0.0
3.2 0.4 0.0
3.6 0.4 0.0
4.0 0.4 0.0
4.4 0.4 0.0
4.800000000000001 0.4 0.0
5.2 0.4 0.0
5.6000000000000005 0.4 0.0
6.0 0.4 0.0
6.4 0.4 0.0
6.800000000000001 0.4 0.0
7.2 0.4 0.0
7.6000000000000005 0.4 0.0
8.0 0.4 0.0
8.4 0.4 0.0
8.8 0.4 0.0
9.200000000000001 0.4 0.0
9.600000000000001 0.4 0.0
10.0 0.4 0.0
10.4 0.4 0.0
10.8 0.4 0.0
11.200000000000001 0.4 0.0
11.600000000000001 0.4 0.0
12.0 0.4 0.0
12.4 0.4 0.0
12.8 0.4 0.0
13.200000000000001 0.4 0.0
13.600000000000001 0.4 0.0
14.0 0.4 0.0
14.4 0.4 0.0
14.8 0.4 0.0
15.200000000000001 0.4 0.0
15.600000000000001 0.4 0.0
16.0 0.4 0.0
0.0 0.5 0.0
0.4 0.5 0.0
0.8 0.5 0.0
1.2000000000000002 0.5 0.0
1.6 0.5 0.0
2.0 0.5 0.0
2.4000000000000004 0.5 0.0
2.8000000000000003 0.5 0.0
3.2 0.5 0.0
3.6 0.5 0.0
4.0 0.5 0.0
4.4 0.5 0.0
4.800000000000001 0.5 0.0
5.2 0.5 0.0
5.6000000000000005 0.5 0.0
6.0 0.5 0.0
6.4 0.5 0.0
6.800000000000001 0.5 0.0
7.2 0.5 0.0
7.6000000000000005 0.5 0.0
8.0 0.5 0.0
8.4 0.5 0.0
8.8 0.5 0.0
9.200000000000001 0.5 0.0
9.600000000000001 0.5 0.0
10.0 0.5 0.0
10.4 0.5 0.0
10.8 0.5 0.0
11.200000000000001 0.5 0.0
11.600000000000001 0.5 0.0
12.0 0.5 0.0
12.4 0.5 0.0
12.8 0.5 0.0
13.200000000000001 0.5 0.0
13.600000000000001 0.5 0.0
14.0 0.5 0.0
14.4 0.5 0.0
14.8 0.5 0.0
15.200000000000001 0.5 0.0
15.600000000000001 0.5 0.0
16.0 0.5 0.0
0.0 0.6000000000000001 0.0
0.4 0.6000000000000001 0.0
0.8 0.6000000000000001 0.0
1.2000000000000002 0.6000000000000001 0.0
1.6 0.6000000000000001 0.0
2.0 0.6000000000000001 0.0
2.4000000000000004 0.6000000000000001 0.0
2.8000000000000003 0.6000000000000001 0.0
3.2 0.6000000000000001 0.0
3.6 0.6000000000000001 0.0
4.0 0.6000000000000001 0.0
4.4 0.6000000000000001 0.0
4.800000000000001 0.6000000000000001 0.0
5.2 0.6000000000000001 0.0
5.6000000000000005 0.6000000000000001 0.0
6.0 0.6000000000000001 0.0
6.4 0.6000000000000001 0.0
6.800000000000001 0.6000000000000001 0.0
7.2 0.6000000000000001 0.0
7.6000000000000005 0.6000000000000001 0.0
8.0 0.6000000000000001 0.0
8.4 0.6000000000000001 0.0
8.8 0.6000000000000001 0.0
9.200000000000001 0.6000000000000001 0.0
9.600000000000001 0.6000000000000001 0.0
10.0 0.6000000000000001 0.0
10.4 0.6000000000000001 0.0
10.8 0.6000000000000001 0.0
11.200000000000001 0.6000000000000001 0.0
11.600000000000001 0.6000000000000001 0.0
12.0 0.6000000000000001 0.0
12.4 0.6000000000000001 0.0
12.8 0.6000000000000001 0.0
13.200000000000001 0.6000000000000001 0.0
13.600000000000001 0.6000000000000001 0.0
14.0 0.6000000000000001 0.0
14.4 0.6000000000000001 0.0
14.8 0.6000000000000001 0.0
15.200000000000001 0.6000000000000001 0.0
15.600000000000001 0.6000000000000001 0.0
16.0 0.6000000000000001 0.0
0.0 0.7000000000000001 0.0
0.4 0.7000000000000001 0.0
0.8 0.7000000000000001 0.0
1.2000000000000002 0.7000000000000001 0.0
1.6 0.7000000000000001 0.0
2.0 0.7000000000000001 0.0
2.4000000000000004 0.7000000000000001 0.0
2.8000000000000003 0.7000000000000001 0.0
3.2 0.7000000000000001 0.0
3.6 0.7000000000000001 0.0
4.0 0.7000000000000001 0.0
4.4 0.7000000000000001 0.0
4.800000000000001 0.7000000000000001 0.0
5.2 0.7000000000000001 0.0
5.6000000000000005 0.7000000000000001 0.0
6.0 0.7000000000000001 0.0
6.4 0.7000000000000001 0.0
6.800000000000001 0.7000000000000001 0.0
7.2 0.7000000000000001 0.0
7.6000000000000005 0.7000000000000001 0.0
8.0 0.7000000000000001 0.0
8.4 0.7000000000000001 0.0
8.8 0.7000000000000001 0.0
9.200000000000001 0.7000000000000001 0.0
9.600000000000001 0.7000000000000001 0.0
10.0 0.7000000000000001 0.0
10.4 0.7000000000000001 0.0
10.8 0.7000000000000001 0.0
11.200000000000001 0.7000000000000001 0.0
11.600000000000001 0.7000000000000001 0.0
12.0 0.7000000000000001 0.0
12.4 0.7000000000000001 0.0
12.8 0.7000000000000001 0.0
13.200000000000001 0.7000000000000001 0.0
13.600000000000001 0.7000000000000001 0.0
14.0 0.7000000000000001 0.0
14.4 0.7000000000000001 0.0
14.8 0.7000000000000001 0.0
15.200000000000001 0.7000000000000001 0.0
15.600000000000001 0.7000000000000001 0.0
16.0 0.7000000000000001 0.0
0.0 0.8 0.0
0.4 0.8 0.0
0.8 0.8 0.0
1.2000000000000002 0.8 0.0
1.6 0.8 0.0
2.0 0.8 0.0
2.4000000000000004 0.8 0.0
2.8000000000000003 0.8 0.0
3.2 0.8 0.0
3.6 0.8 0.0
4.0 0.8 0.0
4.4 0.8 0.0
4.800000000000001 0.8 0.0
5.2 0.8 0.0
5.6000000000000005 0.8 0.0
6.0 0.8 0.0
6.4 0.8 0.0
6.800000000000001 0.8 0.0
7.2 0.8 0.0
7.6000000000000005 0.8 0.0
8.0 0.8 0.0
8.4 0.8 0.0
8.8 0.8 0.0
9.200000000000001 0.8 0.0
9.600000000000001 0.8 0.0
10.0 0.8 0.0
10.4 0.8 0.0
10.8 0.8 0.0
11.200000000000001 0.8 0.0
11.600000000000001 0.8 0.0
12.0 0.8 0.0
12.4 0.8 0.0
12.8 0.8 0.0
13.200000000000001 0.8 0.0
13.600000000000001 0.8 0.0
14.0 0.8 0.0
14.4 0.8 0.0
14.8 0.8 0.0
15.200000000000001 0.8 0.0
15.600000000000001 0.8 0.0
16.0 0.8 0.0
0.0 0.9 0.0
0.4 0.9 0.0
0.8 0.9 0.0
1.2000000000000002 0.9 0.0
1.6 0.9 0.0
2.0 0.9 0.0
2.4000000000000004 0.9 0.0
2.8000000000000003 0.9 0.0
3.2 0.9 0.0
3.6 0.9 0.0
4.0 0.9 0.0
4.4 0.9 0.0
4.800000000000001 0.9 0.0
5.2 0.9 0.0
5.6000000000000005 0.9 0.0
6.0 0.9 0.0
6.4 0.9 0.0
6.800000000000001 0.9 0.0
7.2 0.9 0.0
7.6000000000000005 0.9 0.0
8.0 0.9 0.0
8.4 0.9 0.0
8.8 0.9 0.0
9.200000000000001 0.9 0.0
9.600000000000001 0.9 0.0
10.0 0.9 0.0
10.4 0.9 0.0
10.8 0.9 0.0
11.200000000000001 0.9 0.0
11.600000000000001 0.9 0.0
12.0 0.9 0.0
12.4 0.9 0.0
12.8 0.9 0.0
13.200000000000001 0.9 0.0
13.600000000000001 0.9 0.0
14.0 0.9 0.0
14.4 0.9 0.0
14.8 0.9 0.0
15.200000000000001 0.9 0.0
15.600000000000001 0.9 0.0
16.0 0.9 0.0
0.0 1.0 0.0
0.4 1.0 0.0
0.8 1.0 0.0
1.2000000000000002 1.0 0.0
1.6 1.0 0.0
2.0 1.0 0.0
2.4000000000000004 1.0 0.0
2.8000000000000003 1.0 0.0
3.2 1.0 0.0
3.6 1.0 0.0
4.0 1.0 0.0
4.4 1.0 0.0
4.800000000000001 1.0 0.0
5.2 1.0 0.0
5.6000000000000005 1.0 0.0
6.0 1.0 0.0
6.4 1.0 0.0
6.800000000000001 1.0 0.0
7.2 1.0 0.0
7.6000000000000005 1.0 0.0
8.0 1.0 0.0
8.4 1.0 0.0
8.8 1.0 0.0
9.200000000000001 1.0 0.0
9.600000000000001 1.0 0.0
10.0 1.0 0.0
10.4 1.0 0.0
10.8 1.0 0.0
11.200000000000001 1.0 0.0
11.600000000000001 1.0 0.0
12.0 1.0 0.0
12.4 1.0 0.0
12.8 1.0 0.0
13.200000000000001 1.0 0.0
13.600000000000001 1.0 0.0
14.0 1.0 0.0
14.4 1.0 0.0
14.8 1.0 0.0
15.200000000000001 1.0 0.0
15.600000000000001 1.0 0.0
16.0 1.0 0.0
0.0 1.1 0.0
0.4 1.1 0.0
0.8 1.1 0.0
1.2000000000000002 1.1 0.0
1.6 1.1 0.0
[...]
POINT_DATA 861
SCALARS Disp float 2
LOOKUP_TABLE default
0.0 0.0
0.0038808299430057604 -0.11452429430464739
0.004837466713521987 -0.22246808422567402
0.005542257307649271 -0.3298092279098984
0.00637814190601649 -0.43686517245335554
0.007509380406719148 -0.5434444312131237
0.009201868167983839 -0.6493048855475488
0.011695985559728912 -0.7541823176464394
0.015254529325727543 -0.8577504778940743
0.02015978926629623 -0.9595841723372802
0.026716912137249315 -1.0591114168144948
0.03529348844070691 -1.1555696940804436
0.04635572765033611 -1.247983666069567
0.06045800711773436 -1.3351829136321203
0.07823202208561784 -1.4158250660060159
0.10030541141049584 -1.488414739670002
0.12715888497422276 -1.5513255964578916
0.15894851836109408 -1.602844419970118
0.19534931268132802 -1.6412919745612244
0.23548645709182095 -1.6652428800464858
0.2779094380835955 -1.6737416069227526
0.32033241907536875 -1.6652428800464465
0.3604695634858564 -1.6412919745611443
0.39687035780608104 -1.6028444199700016
0.42865999119294057 -1.551325596457746
0.45551346475665483 -1.4884147396698366
0.47758685408152074 -1.415825066005834
0.4953608690493918 -1.3351829136319269
0.5094631485167769 -1.2479836660693675
0.5205253877263928 -1.1555696940802445
0.5291019640298384 -1.0591114168143012
0.5356590869007813 -0.9595841723370964
0.5405643468413419 -0.8577504778939027
0.5441228906073338 -0.7541823176462831
0.5466170079990739 -0.6493048855474091
0.5483094957603353 -0.5434444312130039
0.5494407342610363 -0.43686517245325623
0.5502766188594033 -0.32980922790982103
0.5509814094535302 -0.22246808422561778
0.5519380462240457 -0.11452429430461403
0.5558188761670491 0.0
0.028586503495406444 -0.0017351639538590404
0.031168041656927714 -0.11462358564621296
0.03169815850535352 -0.222534136950941
0.032336595255123175 -0.32988571159021557
0.03308590111463722 -0.43696195651720565
0.034073072706563914 -0.543615158164293
0.035554523177042496 -0.6496107038160386
0.03776271039112815 -0.7546822590466561
0.04094151736119635 -0.8585100114481028
0.045341519530477874 -0.9606702701725217
0.051230225731564064 -1.0605992870734275
0.05892458376496651 -1.1575546425096503
0.06883128463505275 -1.2505872634930988
0.0814635796881275 -1.3385495364985245
0.09740580386216288 -1.4201125036306506
0.11724723226753453 -1.4937661567160652
0.14144292356166013 -1.557828502464626
0.17015149564217297 -1.610488853895663
0.2030993617906704 -1.6499414073653023
0.23949226138077814 -1.6746246783593473
0.2779094380835907 -1.6834105932618852
0.31632661478640195 -1.6746246783593075
0.3527195143765049 -1.6499414073652205
0.38566738052499433 -1.6104888538955444
0.41437595260549703 -1.5578285024644773
0.43857164389961156 -1.4937661567158969
0.4584130723049722 -1.4201125036304658
0.47435529647899644 -1.338549536498328
0.4869875915320594 -1.2505872634928965
0.49689429240213384 -1.1575546425094485
0.5045886504355254 -1.0605992870732315
0.5104773566366023 -0.9606702701723359
0.5148773588058765 -0.8585100114479296
0.5180561657759386 -0.7546822590464984
0.5202643529900197 -0.6496107038158979
0.5217458034604956 -0.5436151581641728
0.522732975052421 -0.43696195651710623
0.5234822809119347 -0.3298857115901382
0.5241207176617042 -0.2225341369508848
0.5246508345101301 -0.11462358564617946
0.5272323726716477 -0.0017351639538570158
0.056441264858752165 -0.0030848348271336843
0.05827669138825665 -0.11466511760226782
0.05858485256480819 -0.22257479503717387
0.059106713436845 -0.32995610931604885
0.05977555617366466 -0.4370448611380047
0.06063451763710319 -0.5437521773457809
0.061902667600540376 -0.6498642093344829
0.06382292787681446 -0.7551083893765749
0.06661567655971105 -0.8591686045995465
0.07050367707555986 -0.9616207471471664
0.07571796944792285 -1.0619072181988174
0.08253002602544016 -1.1593017480857444
0.09128960139527298 -1.252880984249202
0.1024508058871621 -1.3415235871467042
0.11655557379924497 -1.4239129767485905
0.1341462777375942 -1.498527063358299
0.15565400886424993 -1.5636345680748385
0.1812551332619607 -1.6173380212317587
0.21073780623306287 -1.6577163269588604
0.24338243135299267 -1.683066889911243
0.27790943808358626 -1.6921205022183978
0.31243644481417854 -1.6830668899112027
0.3450810699341041 -1.6577163269587774
0.37456374290519917 -1.6173380212316382
0.40016486730290124 -1.563634568074688
0.4216725984295473 -1.4985270633581282
0.4392633023678866 -1.4239129767484033
0.4533680702799595 -1.341523587146505
0.4645292747718382 -1.2528809842489967
0.47328885014166067 -1.1593017480855399
0.4801009067191682 -1.061907218198619
0.48531519909152304 -0.9616207471469788
0.4892031996073651 -0.8591686045993718
0.4919959482902562 -0.7551083893764162
0.4939162085665264 -0.6498642093343416
0.4951843585299613 -0.5437521773456604
0.4960433199933989 -0.43704486113790525
0.4967121627302183 -0.3299561093159714
0.49723402360225505 -0.22257479503711772
0.49754218477880674 -0.1146651176022341
0.4993776113083076 -0.0030848348271296055
0.08391451156131183 -0.004158918333529485
0.0852664734623719 -0.11469367958037675
0.08545428557222753 -0.22259737784422312
0.08586114292690507 -0.33001447102939707
0.08644116591507123 -0.437118424101266
0.0871893622207664 -0.5438606981088393
0.08825394250043715 -0.6500656584152805
0.08988329428577976 -0.7554617899675597
0.09228643849740417 -0.8597261632652683
0.09565783546980951 -0.962435586749977
0.10019506755009945 -1.0630355240858091
0.10612536410234887 -1.1608134821400784
0.11374512843924302 -1.2548685681643432
0.1234476059615173 -1.3441062214661215
0.13571258405127565 -1.4272253418596792
0.15104165324008884 -1.502693418499653
0.16984235576152235 -1.5687380301762788
0.19231050004122055 -1.6233873307295084
0.2183019822984269 -1.6646132748681959
0.24720757461129514 -1.6905820734488735
0.2779094380835821 -1.6999014168576452
0.3086113015558677 -1.6905820734488324
0.3375168938687321 -1.6646132748681115
0.36350837612593223 -1.623387330729386
0.38597652040562286 -1.5687380301761262
0.40477722292704793 -1.5026934184994802
0.4201062921158524 -1.4272253418594896
0.43237127020560195 -1.34410622146592
0.4420737477278672 -1.254868568164136
0.44969351206475233 -1.1608134821398715
0.4556238086169932 -1.0630355240856089
0.4601610406972759 -0.9624355867497877
0.4635324376696753 -0.8597261632650925
0.4659355818812949 -0.7554617899674
0.4675649336666342 -0.6500656584151387
0.4686295139463031 -0.5438606981087187
0.4693777102519977 -0.4371184241011664
0.46995773324016354 -0.33001447102931963
0.4703645905948411 -0.22259737784416705
0.4705524027046968 -0.11469367958034282
0.4719043646057537 -0.004158918333523564
0.1111651326549633 -0.005017988207549526
0.11216972110206301 -0.11472174819326872
0.1122908728983383 -0.2226095442840798
0.11259813894929996 -0.3300594313881118
0.1130834204928695 -0.43718280207476773
0.1137268760948549 -0.5439495454382701
0.11461366748390868 -0.6502194687293532
0.11595121654069307 -0.7557432840416927
0.11796356242796885 -0.8601839250500934
0.1208163533973407 -0.9631155850033896
0.12467566818932135 -1.0639859105473475
0.1297282933776415 -1.1620922202694404
0.1362164096402482 -1.2565539186835277
0.14447084775135222 -1.3463017415732812
0.15491080248802455 -1.4300506569163247
0.16797800531169935 -1.5062635530456474
0.18405785838671063 -1.5731349422901129
0.20336924712460008 -1.6286307753675962
0.22584171906296102 -1.670628954844669
0.25100240121981354 -1.69717804569206
0.27790943808357804 -1.7067701594714075
0.30481647494734143 -1.6971780456920182
0.32997715710419023 -1.6706289548445834
0.35244962904254573 -1.628630775367472
0.3717610177804287 -1.5731349422899585
0.3878408708554325 -1.5062635530454727
0.4009080736790998 -1.4300506569161333
0.4113480284157647 -1.3463017415730778
0.41960246652686084 -1.2565539186833186
0.42609058278945994 -1.1620922202692314
0.43114320797777284 -1.0639859105471454
0.43500252276974727 -0.9631155850031989
0.43785531373911396 -0.8601839250499164
0.43986765962638563 -0.7557432840415322
0.4412052086831673 -0.6502194687292109
0.44209200007221977 -0.5439495454381496
0.44273545567420475 -0.4371828020746681
0.44322073721777394 -0.3300594313880343
0.44352800326873565 -0.22260954428402374
0.44364915506501096 -0.1147217481932346
0.44465374351210807 -0.005017988207542037
0.13826758876107456 -0.005701117637458815
0.139010884781134 -0.11475227468027059
0.13909187084810656 -0.22261651456107467
0.1393152929618038 -0.33009188269408585
0.13970389361896096 -0.43723682431958694
0.14024269440977052 -0.5440231139223243
0.1409717640280315 -0.6503354968304144
0.14204165772307745 -0.7559541572316634
0.14365780025136982 -0.8605437903200812
0.14599229487601403 -0.9636628272736892
0.14917533410734937 -1.0647604909239436
0.15335513854336144 -1.163141605874928
0.15872318610655756 -1.2579417934917523
0.16554714241397914 -1.3481150588135322
0.1741744006574153 -1.4323938782635326
0.1849949484185862 -1.5092393636064965
0.19835669289412602 -1.576822870517964
0.21448829817064954 -1.6330623348540847
0.23340750325751186 -1.6757581591826078
0.25479792519976774 -1.7028562534929148
0.277909438083574 -1.712735259986483
0.30102095096737924 -1.7028562534928724
0.3224113729096317 -1.675758159182521
0.3413305779964893 -1.6330623348539592
0.3574621832730074 -1.5768228705178082
0.3708239277485408 -1.50923936360632
0.3816444755097053 -1.4323938782633396
0.39027173375313534 -1.3481150588133273
0.39709569006055045 -1.2579417934915413
0.40246373762374016 -1.1631416058747177
0.4066435420597462 -1.0647604909237405
0.4098265812910764 -0.9636628272734973
0.41216107591571627 -0.8605437903199032
0.41377721844400533 -0.7559541572315023
0.4148471121390493 -0.6503354968302717
0.41557618175730937 -0.5440231139222036
0.4161149825481185 -0.43723682431948724
0.4165035832052755 -0.33009188269400824
0.4167270053189726 -0.22261651456101858
0.41680799138594515 -0.11475227468023633
0.41755128740600256 -0.005701117637450017
0.16526263615514233 -0.006238961765568401
0.1658074610145926 -0.1147852662021466
0.1658602383045248 -0.22262102287289606
0.16601166900274236 -0.3301133889453429
0.16630521010671234 -0.43727925106128246
0.16673526389284993 -0.5440838997441163
0.16731686254076295 -0.6504236699283326
0.16814762890973792 -0.756105059406709
0.16938698261863888 -0.8608078094850447
0.17120016759613998 -0.964080348582277
0.17371116572385104 -1.0653629282132953
0.1770250215577862 -1.1639660543955879
0.18128567100813547 -1.2590381131251667
0.1866979777746428 -1.3495534159426392
0.19353956849914195 -1.4342609649229383
0.20213042968178555 -1.5116261284868366
0.21278385043581252 -1.5798034175073394
0.2257305714132241 -1.636676968924716
0.24105825484497476 -1.679992514737138
0.2586271005408968 -1.7076111853002969
0.2779094380835699 -1.7177979668362107
0.29719177562624177 -1.707611185300254
0.3147606213221611 -1.6799925147370502
0.33008830475390777 -1.6366769689245895
0.3430350257313148 -1.5798034175071825
0.35368844648533654 -1.5116261284866586
0.36227930766797484 -1.434260964922744
0.3691208983924691 -1.3495534159424327
0.3745332051589715 -1.2590381131249544
0.37879385460931564 -1.1639660543953765
0.38210771044324604 -1.0653629282130908
0.384618708570953 -0.9640803485820841
0.3864318935484506 -0.8608078094848661
0.3876712472573491 -0.7561050594065475
0.38850201362632264 -0.6504236699281899
0.3890836122742351 -0.5440838997439956
0.3895136660603724 -0.4372792510611828
0.38980720716434214 -0.3301133889452653
0.38995863786255963 -0.22262102287283994
0.3900114151524917 -0.11478526620211224
0.3905562400119405 -0.006238961765558548
0.1921784535223619 -0.0066553930783736686
0.19257129529788608 -0.11482129172384699
0.19260094355353305 -0.22262378915106867
0.19268811733398944 -0.33012542756329055
0.1928897962448141 -0.43730961785662914
0.19320708806313172 -0.544131654812636
0.19364697792611543 -0.6504889241802544
0.19425849004216034 -0.7562089251740685
0.1951533260198127 -0.8609858851645581
0.19646187198409001 -0.9643724477069568
0.19830251880584138 -1.0657982429692838
0.20075810069338493 -1.164571509555121
0.20392582478125454 -1.2598503373367187
0.20794941638785308 -1.350625797068222
0.21303333308591826 -1.4356620896290744
0.21942685928452518 -1.513431494031837
0.2273915129468841 -1.5820807976901037
0.23715050688916556 -1.6394732617178067
0.24885397759465158 -1.6833216375702411
0.26252829599621613 -1.7114295038098064
0.2779094380835655 -1.7219517085687657
0.2932905801709139 -1.7114295038097629
0.30696489857247633 -1.6833216375701525
0.31866836927795916 -1.6394732617176793
0.3284273632202369 -1.5820807976899458
0.33639201688259185 -1.5134314940316576
0.34278554308119463 -1.435662089628879
0.3478694597792564 -1.3506257970680147
0.35189305138585136 -1.2598503373365055
0.35506077547371717 -1.1645715095549083
0.3575163573612571 -1.0657982429690787
0.3593570041830054 -0.9643724477067633
0.36066555014728036 -0.8609858851643791
0.3615603861249311 -0.7562089251739066
0.36217189824097507 -0.6504889241801117
0.36261178810395844 -0.5441316548125154
0.36292907992227585 -0.4373096178565294
0.3631307588331003 -0.33012542756321295
0.3632179326135566 -0.22262378915101247
0.3632475808692035 -0.11482129172381263
0.3636404226447266 -0.0066553930783630234
0.2190305055765464 -0.006974381222960226
0.21931318674543973 -0.11486036049745615
0.21931832828943748 -0.22262453459491444
0.21934708859142577 -0.3301291459457094
0.21946035402836706 -0.4373281035573872
0.21966297733628817 -0.5441648174721281
0.21995566613812848 -0.6505362123296619
0.220364639903093 -0.7562766847262302
0.22094748624419375 -0.8610939448927346
0.2217860751210423 -0.9645511426455121
0.2229734467726192 -1.0660743045155912
0.22458111106691814 -1.1649667969697404
0.2266690796653365 -1.2603886938986597
0.22932742653132604 -1.3513444465377866
0.23268765375289294 -1.4366105706380299
0.2369218485464115 -1.5146679338747295
0.24222701023604196 -1.5836638511682803
0.24881315556929656 -1.6414529454826068
0.2568629891986286 -1.6857351065578665
0.2665466763550521 -1.7142906363281571
0.27790943808356083 -1.7251821100671163
0.28927219981206903 -1.7142906363281132
0.29895588696849107 -1.6857351065577777
0.30700572059782066 -1.6414529454824787
0.3135918659310727 -1.583663851168122
0.3188970276207005 -1.5146679338745495
0.3231312224142162 -1.4366105706378338
0.32649144963578103 -1.3513444465375788
0.32914979650176845 -1.2603886938984457
0.3312377651001843 -1.1649667969695272
0.3328454293944811 -1.0660743045153853
0.3340328010460559 -0.9645511426453182
0.3348713899229031 -0.8610939448925554
0.3354542362640029 -0.7562766847260682
0.3358632100289669 -0.6505362123295192
0.336155898830807 -0.5441648174720073
0.336358522138728 -0.4373281035572875
0.33647178757566926 -0.33012914594563175
0.3365005478776575 -0.2226245345948582
0.3365056894216551 -0.11486036049742177
0.33678837059054784 -0.006974381222949019
0.24582892864579378 -0.00722183906754351
0.24603572648805616 -0.11490187724074113
0.2460173344392535 -0.2226227162760722
0.2459918530721082 -0.330125444651224
0.2460201190956339 -0.43733494372581494
0.24610769548705422 -0.5441827848662256
0.2462501064299946 -0.6505643599658971
0.24645466192171736 -0.7563169644180319
0.24674436912007142 -0.8611524275992654
0.24715973385790443 -0.9646394599869361
0.24773429375044329 -1.0662102483669202
0.24852004001225478 -1.1651683182395258
0.2495456315376236 -1.2606698617749823
0.25085896166632965 -1.3517281941060229
0.2525282457543329 -1.4371271929730856
0.2546422868466834 -1.5153559861802695
0.2573242002697252 -1.584568449706914
0.2607491493758536 -1.642627249041904
0.26514868929702057 -1.687229423063468
0.2707523552946624 -1.7161670518317296
0.27790943808355595 -1.7274631581921134
0.2850665208724494 -1.7161670518316854
0.2906701868700905 -1.6872294230633786
0.2950697267912559 -1.6426272490417755
0.29849467589738277 -1.5845684497067551
0.3011765893204234 -1.515355986180089
0.3032906304127726 -1.437127192972889
0.30495991450077514 -1.3517281941058146
0.3062732446294804 -1.260669861774768
0.3072988361548482 -1.1651683182393124
0.3080845824166588 -1.0662102483667142
0.3086591423091969 -0.9646394599867419
0.3090745070470294 -0.8611524275990861
0.309364214245383 -0.7563169644178699
0.3095687697371057 -0.6505643599657546
0.30971118068004605 -0.5441827848661049
0.3097987570714663 -0.4373349437257152
0.30982702309499205 -0.3301254446511463
0.3098015417278467 -0.22262271627601596
0.309783149679044 -0.11490187724070676
0.30998994752130604 -0.007221839067531943
0.27258813740589993 -0.0074166234956615515
0.2727420933166467 -0.1149440052766784
0.2727022490904427 -0.22261828578585258
0.2726263512517034 -0.33011489661120247
0.27257283978514374 -0.43733049965507165
0.27254631588759026 -0.5441853940506801
0.27253668771723827 -0.6505727707728136
0.2725345317587836 -0.7563303098832735
0.27253459244951383 -0.8611715429774808
0.2725350459801381 -0.9646673340899582
0.2725353982675696 -1.0662493933836465
0.2725355336841406 -1.1652227596982316
0.2725348537783296 -1.260743451014137
0.27253174437339595 -1.3518281591461494
0.2725262002852005 -1.4372629521424916
0.2725293350189598 -1.5155427510957884
0.27259357827841796 -1.584837094080584
0.27286492070471763 -1.6430307336446093
0.27361609174029994 -1.6878371251541036
0.27517799505278406 -1.7170482541308436
0.27790943808355095 -1.7287647307804495
0.280640881114318 -1.7170482541307992
0.2822027844268019 -1.6878371251540139
0.28295395546238367 -1.6430307336444805
0.2832252978886834 -1.584837094080425
0.2832895411481419 -1.5155427510956079
0.28329267588190143 -1.4372629521422948
0.2832871317937065 -1.3518281591459413
0.2832840223887735 -1.260743451013923
0.283283342482963 -1.165222759698018
0.2832834778995345 -1.0662493933834403
0.28328383018696646 -0.964667334089764
0.283284283717591 -0.8611715429773015
0.2832843444083214 -0.7563303098831117
0.2832821884498668 -0.6505727707726711
0.283272560279515 -0.5441853940505594
0.2832460363819616 -0.4373304996549719
0.283192524915402 -0.3301148966111247
0.2831166270766628 -0.22261828578579632
0.28307678285045873 -0.11494400527664403
0.2832307387612054 -0.00741662349564977
0.2993216033875669 -0.007570777868816443
0.29943713666106175 -0.11498427052135664
0.2993774938021342 -0.22261142452574997
0.299254710823589 -0.33009793374150986
0.299122622253998 -0.43731524777962427
0.298984102880786 -0.5441727557575509
0.29882344306419967 -0.6505612915846662
0.2986143499339111 -0.7563164247867193
0.298324867532098 -0.8611526044164046
0.29791039246025736 -0.964639604617009
0.29733652709605285 -1.0662103292873373
0.2965510897794805 -1.1651681931486872
0.2955242059285013 -1.2606691050823298
0.29420488226790903 -1.3517263858589015
0.29252402647675513 -1.4371256285473222
0.2904152169068825 -1.5153649993145255
0.2878547609415419 -1.5846280443742313
0.2849275575586446 -1.6428232545750348
0.28189571119574414 -1.6877043526360715
0.2792264009227973 -1.7170396969464845
0.2779094380835462 -1.7291986015688683
0.27659247524429476 -1.7170396969464403
0.2739231649713478 -1.687704352635982
0.2708913186084481 -1.6428232545749057
0.26796411522555275 -1.5846280443740726
0.2654036592602141 -1.5153649993143452
0.2632948496903433 -1.4371256285471254
0.2616139938991911 -1.3517263858586939
0.2602946702386008 -1.2606691050821157
0.2592677863876237 -1.165168193148474
0.2584823490710534 -1.066210329287131
0.25790848370685043 -0.9646396046168152
0.2574940086350109 -0.8611526044162253
0.2572045262331984 -0.7563164247865575
0.2569954331029102 -0.6505612915845238
0.25683477328632426 -0.5441727557574304
0.25669625391311246 -0.43731524777952446
0.2565641653435216 -0.33009793374143215
0.2564413823649766 -0.22261142452569369
0.25638173950604903 -0.11498427052132223
0.2564972727795438 -0.0075707778688044935
0.3260432747550769 -0.007689972848713878
0.32612619667024945 -0.11502097667927208
0.3260478819466682 -0.2226020813895313
0.325881222829787 -0.3300749885345533
0.3256738928516083 -0.43728975148132215
0.32542638779262556 -0.5441452424224749
0.3251169224563658 -0.6505301703821658
0.32470452394663396 -0.7562756765539345
0.32412179150715037 -0.8610942868297391
0.32328420053275614 -0.9645514626422798
0.3220974612113304 -1.0660744695401718
0.32048993167320333 -1.1649665468845742