# vtk DataFile Version 3.0
Some data
ASCII
DATASET UNSTRUCTURED_GRID
POINTS 861 float
0.0 0.0 0.0
0.4 0.0 0.0
0.8 0.0 0.0
1.2000000000000002 0.0 0.0
1.6 0.0 0.0
2.0 0.0 0.0
2.4000000000000004 0.0 0.0
2.8000000000000003 0.0 0.0
3.2 0.0 0.0
3.6 0.0 0.0
4.0 0.0 0.0
4.4 0.0 0.0
4.800000000000001 0.0 0.0
5.2 0.0 0.0
5.6000000000000005 0.0 0.0
6.0 0.0 0.0
6.4 0.0 0.0
6.800000000000001 0.0 0.0
7.2 0.0 0.0
7.6000000000000005 0.0 0.0
8.0 0.0 0.0
8.4 0.0 0.0
8.8 0.0 0.0
9.200000000000001 0.0 0.0
9.600000000000001 0.0 0.0
10.0 0.0 0.0
10.4 0.0 0.0
10.8 0.0 0.0
11.200000000000001 0.0 0.0
11.600000000000001 0.0 0.0
12.0 0.0 0.0
12.4 0.0 0.0
12.8 0.0 0.0
13.200000000000001 0.0 0.0
13.600000000000001 0.0 0.0
14.0 0.0 0.0
14.4 0.0 0.0
14.8 0.0 0.0
15.200000000000001 0.0 0.0
15.600000000000001 0.0 0.0
16.0 0.0 0.0
0.0 0.1 0.0
0.4 0.1 0.0
0.8 0.1 0.0
1.2000000000000002 0.1 0.0
1.6 0.1 0.0
2.0 0.1 0.0
2.4000000000000004 0.1 0.0
2.8000000000000003 0.1 0.0
3.2 0.1 0.0
3.6 0.1 0.0
4.0 0.1 0.0
4.4 0.1 0.0
4.800000000000001 0.1 0.0
5.2 0.1 0.0
5.6000000000000005 0.1 0.0
6.0 0.1 0.0
6.4 0.1 0.0
6.800000000000001 0.1 0.0
7.2 0.1 0.0
7.6000000000000005 0.1 0.0
8.0 0.1 0.0
8.4 0.1 0.0
8.8 0.1 0.0
9.200000000000001 0.1 0.0
9.600000000000001 0.1 0.0
10.0 0.1 0.0
10.4 0.1 0.0
10.8 0.1 0.0
11.200000000000001 0.1 0.0
11.600000000000001 0.1 0.0
12.0 0.1 0.0
12.4 0.1 0.0
12.8 0.1 0.0
13.200000000000001 0.1 0.0
13.600000000000001 0.1 0.0
14.0 0.1 0.0
14.4 0.1 0.0
14.8 0.1 0.0
15.200000000000001 0.1 0.0
15.600000000000001 0.1 0.0
16.0 0.1 0.0
0.0 0.2 0.0
0.4 0.2 0.0
0.8 0.2 0.0
1.2000000000000002 0.2 0.0
1.6 0.2 0.0
2.0 0.2 0.0
2.4000000000000004 0.2 0.0
2.8000000000000003 0.2 0.0
3.2 0.2 0.0
3.6 0.2 0.0
4.0 0.2 0.0
4.4 0.2 0.0
4.800000000000001 0.2 0.0
5.2 0.2 0.0
5.6000000000000005 0.2 0.0
6.0 0.2 0.0
6.4 0.2 0.0
6.800000000000001 0.2 0.0
7.2 0.2 0.0
7.6000000000000005 0.2 0.0
8.0 0.2 0.0
8.4 0.2 0.0
8.8 0.2 0.0
9.200000000000001 0.2 0.0
9.600000000000001 0.2 0.0
10.0 0.2 0.0
10.4 0.2 0.0
10.8 0.2 0.0
11.200000000000001 0.2 0.0
11.600000000000001 0.2 0.0
12.0 0.2 0.0
12.4 0.2 0.0
12.8 0.2 0.0
13.200000000000001 0.2 0.0
13.600000000000001 0.2 0.0
14.0 0.2 0.0
14.4 0.2 0.0
14.8 0.2 0.0
15.200000000000001 0.2 0.0
15.600000000000001 0.2 0.0
16.0 0.2 0.0
0.0 0.30000000000000004 0.0
0.4 0.30000000000000004 0.0
0.8 0.30000000000000004 0.0
1.2000000000000002 0.30000000000000004 0.0
1.6 0.30000000000000004 0.0
2.0 0.30000000000000004 0.0
2.4000000000000004 0.30000000000000004 0.0
2.8000000000000003 0.30000000000000004 0.0
3.2 0.30000000000000004 0.0
3.6 0.30000000000000004 0.0
4.0 0.30000000000000004 0.0
4.4 0.30000000000000004 0.0
4.800000000000001 0.30000000000000004 0.0
5.2 0.30000000000000004 0.0
5.6000000000000005 0.30000000000000004 0.0
6.0 0.30000000000000004 0.0
6.4 0.30000000000000004 0.0
6.800000000000001 0.30000000000000004 0.0
7.2 0.30000000000000004 0.0
7.6000000000000005 0.30000000000000004 0.0
8.0 0.30000000000000004 0.0
8.4 0.30000000000000004 0.0
8.8 0.30000000000000004 0.0
9.200000000000001 0.30000000000000004 0.0
9.600000000000001 0.30000000000000004 0.0
10.0 0.30000000000000004 0.0
10.4 0.30000000000000004 0.0
10.8 0.30000000000000004 0.0
11.200000000000001 0.30000000000000004 0.0
11.600000000000001 0.30000000000000004 0.0
12.0 0.30000000000000004 0.0
12.4 0.30000000000000004 0.0
12.8 0.30000000000000004 0.0
13.200000000000001 0.30000000000000004 0.0
13.600000000000001 0.30000000000000004 0.0
14.0 0.30000000000000004 0.0
14.4 0.30000000000000004 0.0
14.8 0.30000000000000004 0.0
15.200000000000001 0.30000000000000004 0.0
15.600000000000001 0.30000000000000004 0.0
16.0 0.30000000000000004 0.0
0.0 0.4 0.0
0.4 0.4 0.0
0.8 0.4 0.0
1.2000000000000002 0.4 0.0
1.6 0.4 0.0
2.0 0.4 0.0
2.4000000000000004 0.4 0.0
2.8000000000000003 0.4 0.0
3.2 0.4 0.0
3.6 0.4 0.0
4.0 0.4 0.0
4.4 0.4 0.0
4.800000000000001 0.4 0.0
5.2 0.4 0.0
5.6000000000000005 0.4 0.0
6.0 0.4 0.0
6.4 0.4 0.0
6.800000000000001 0.4 0.0
7.2 0.4 0.0
7.6000000000000005 0.4 0.0
8.0 0.4 0.0
8.4 0.4 0.0
8.8 0.4 0.0
9.200000000000001 0.4 0.0
9.600000000000001 0.4 0.0
10.0 0.4 0.0
10.4 0.4 0.0
10.8 0.4 0.0
11.200000000000001 0.4 0.0
11.600000000000001 0.4 0.0
12.0 0.4 0.0
12.4 0.4 0.0
12.8 0.4 0.0
13.200000000000001 0.4 0.0
13.600000000000001 0.4 0.0
14.0 0.4 0.0
14.4 0.4 0.0
14.8 0.4 0.0
15.200000000000001 0.4 0.0
15.600000000000001 0.4 0.0
16.0 0.4 0.0
0.0 0.5 0.0
0.4 0.5 0.0
0.8 0.5 0.0
1.2000000000000002 0.5 0.0
1.6 0.5 0.0
2.0 0.5 0.0
2.4000000000000004 0.5 0.0
2.8000000000000003 0.5 0.0
3.2 0.5 0.0
3.6 0.5 0.0
4.0 0.5 0.0
4.4 0.5 0.0
4.800000000000001 0.5 0.0
5.2 0.5 0.0
5.6000000000000005 0.5 0.0
6.0 0.5 0.0
6.4 0.5 0.0
6.800000000000001 0.5 0.0
7.2 0.5 0.0
7.6000000000000005 0.5 0.0
8.0 0.5 0.0
8.4 0.5 0.0
8.8 0.5 0.0
9.200000000000001 0.5 0.0
9.600000000000001 0.5 0.0
10.0 0.5 0.0
10.4 0.5 0.0
10.8 0.5 0.0
11.200000000000001 0.5 0.0
11.600000000000001 0.5 0.0
12.0 0.5 0.0
12.4 0.5 0.0
12.8 0.5 0.0
13.200000000000001 0.5 0.0
13.600000000000001 0.5 0.0
14.0 0.5 0.0
14.4 0.5 0.0
14.8 0.5 0.0
15.200000000000001 0.5 0.0
15.600000000000001 0.5 0.0
16.0 0.5 0.0
0.0 0.6000000000000001 0.0
0.4 0.6000000000000001 0.0
0.8 0.6000000000000001 0.0
1.2000000000000002 0.6000000000000001 0.0
1.6 0.6000000000000001 0.0
2.0 0.6000000000000001 0.0
2.4000000000000004 0.6000000000000001 0.0
2.8000000000000003 0.6000000000000001 0.0
3.2 0.6000000000000001 0.0
3.6 0.6000000000000001 0.0
4.0 0.6000000000000001 0.0
4.4 0.6000000000000001 0.0
4.800000000000001 0.6000000000000001 0.0
5.2 0.6000000000000001 0.0
5.6000000000000005 0.6000000000000001 0.0
6.0 0.6000000000000001 0.0
6.4 0.6000000000000001 0.0
6.800000000000001 0.6000000000000001 0.0
7.2 0.6000000000000001 0.0
7.6000000000000005 0.6000000000000001 0.0
8.0 0.6000000000000001 0.0
8.4 0.6000000000000001 0.0
8.8 0.6000000000000001 0.0
9.200000000000001 0.6000000000000001 0.0
9.600000000000001 0.6000000000000001 0.0
10.0 0.6000000000000001 0.0
10.4 0.6000000000000001 0.0
10.8 0.6000000000000001 0.0
11.200000000000001 0.6000000000000001 0.0
11.600000000000001 0.6000000000000001 0.0
12.0 0.6000000000000001 0.0
12.4 0.6000000000000001 0.0
12.8 0.6000000000000001 0.0
13.200000000000001 0.6000000000000001 0.0
13.600000000000001 0.6000000000000001 0.0
14.0 0.6000000000000001 0.0
14.4 0.6000000000000001 0.0
14.8 0.6000000000000001 0.0
15.200000000000001 0.6000000000000001 0.0
15.600000000000001 0.6000000000000001 0.0
16.0 0.6000000000000001 0.0
0.0 0.7000000000000001 0.0
0.4 0.7000000000000001 0.0
0.8 0.7000000000000001 0.0
1.2000000000000002 0.7000000000000001 0.0
1.6 0.7000000000000001 0.0
2.0 0.7000000000000001 0.0
2.4000000000000004 0.7000000000000001 0.0
2.8000000000000003 0.7000000000000001 0.0
3.2 0.7000000000000001 0.0
3.6 0.7000000000000001 0.0
4.0 0.7000000000000001 0.0
4.4 0.7000000000000001 0.0
4.800000000000001 0.7000000000000001 0.0
5.2 0.7000000000000001 0.0
5.6000000000000005 0.7000000000000001 0.0
6.0 0.7000000000000001 0.0
6.4 0.7000000000000001 0.0
6.800000000000001 0.7000000000000001 0.0
7.2 0.7000000000000001 0.0
7.6000000000000005 0.7000000000000001 0.0
8.0 0.7000000000000001 0.0
8.4 0.7000000000000001 0.0
8.8 0.7000000000000001 0.0
9.200000000000001 0.7000000000000001 0.0
9.600000000000001 0.7000000000000001 0.0
10.0 0.7000000000000001 0.0
10.4 0.7000000000000001 0.0
10.8 0.7000000000000001 0.0
11.200000000000001 0.7000000000000001 0.0
11.600000000000001 0.7000000000000001 0.0
12.0 0.7000000000000001 0.0
12.4 0.7000000000000001 0.0
12.8 0.7000000000000001 0.0
13.200000000000001 0.7000000000000001 0.0
13.600000000000001 0.7000000000000001 0.0
14.0 0.7000000000000001 0.0
14.4 0.7000000000000001 0.0
14.8 0.7000000000000001 0.0
15.200000000000001 0.7000000000000001 0.0
15.600000000000001 0.7000000000000001 0.0
16.0 0.7000000000000001 0.0
0.0 0.8 0.0
0.4 0.8 0.0
0.8 0.8 0.0
1.2000000000000002 0.8 0.0
1.6 0.8 0.0
2.0 0.8 0.0
2.4000000000000004 0.8 0.0
2.8000000000000003 0.8 0.0
3.2 0.8 0.0
3.6 0.8 0.0
4.0 0.8 0.0
4.4 0.8 0.0
4.800000000000001 0.8 0.0
5.2 0.8 0.0
5.6000000000000005 0.8 0.0
6.0 0.8 0.0
6.4 0.8 0.0
6.800000000000001 0.8 0.0
7.2 0.8 0.0
7.6000000000000005 0.8 0.0
8.0 0.8 0.0
8.4 0.8 0.0
8.8 0.8 0.0
9.200000000000001 0.8 0.0
9.600000000000001 0.8 0.0
10.0 0.8 0.0
10.4 0.8 0.0
10.8 0.8 0.0
11.200000000000001 0.8 0.0
11.600000000000001 0.8 0.0
12.0 0.8 0.0
12.4 0.8 0.0
12.8 0.8 0.0
13.200000000000001 0.8 0.0
13.600000000000001 0.8 0.0
14.0 0.8 0.0
14.4 0.8 0.0
14.8 0.8 0.0
15.200000000000001 0.8 0.0
15.600000000000001 0.8 0.0
16.0 0.8 0.0
0.0 0.9 0.0
0.4 0.9 0.0
0.8 0.9 0.0
1.2000000000000002 0.9 0.0
1.6 0.9 0.0
2.0 0.9 0.0
2.4000000000000004 0.9 0.0
2.8000000000000003 0.9 0.0
3.2 0.9 0.0
3.6 0.9 0.0
4.0 0.9 0.0
4.4 0.9 0.0
4.800000000000001 0.9 0.0
5.2 0.9 0.0
5.6000000000000005 0.9 0.0
6.0 0.9 0.0
6.4 0.9 0.0
6.800000000000001 0.9 0.0
7.2 0.9 0.0
7.6000000000000005 0.9 0.0
8.0 0.9 0.0
8.4 0.9 0.0
8.8 0.9 0.0
9.200000000000001 0.9 0.0
9.600000000000001 0.9 0.0
10.0 0.9 0.0
10.4 0.9 0.0
10.8 0.9 0.0
11.200000000000001 0.9 0.0
11.600000000000001 0.9 0.0
12.0 0.9 0.0
12.4 0.9 0.0
12.8 0.9 0.0
13.200000000000001 0.9 0.0
13.600000000000001 0.9 0.0
14.0 0.9 0.0
14.4 0.9 0.0
14.8 0.9 0.0
15.200000000000001 0.9 0.0
15.600000000000001 0.9 0.0
16.0 0.9 0.0
0.0 1.0 0.0
0.4 1.0 0.0
0.8 1.0 0.0
1.2000000000000002 1.0 0.0
1.6 1.0 0.0
2.0 1.0 0.0
2.4000000000000004 1.0 0.0
2.8000000000000003 1.0 0.0
3.2 1.0 0.0
3.6 1.0 0.0
4.0 1.0 0.0
4.4 1.0 0.0
4.800000000000001 1.0 0.0
5.2 1.0 0.0
5.6000000000000005 1.0 0.0
6.0 1.0 0.0
6.4 1.0 0.0
6.800000000000001 1.0 0.0
7.2 1.0 0.0
7.6000000000000005 1.0 0.0
8.0 1.0 0.0
8.4 1.0 0.0
8.8 1.0 0.0
9.200000000000001 1.0 0.0
9.600000000000001 1.0 0.0
10.0 1.0 0.0
10.4 1.0 0.0
10.8 1.0 0.0
11.200000000000001 1.0 0.0
11.600000000000001 1.0 0.0
12.0 1.0 0.0
12.4 1.0 0.0
12.8 1.0 0.0
13.200000000000001 1.0 0.0
13.600000000000001 1.0 0.0
14.0 1.0 0.0
14.4 1.0 0.0
14.8 1.0 0.0
15.200000000000001 1.0 0.0
15.600000000000001 1.0 0.0
16.0 1.0 0.0
0.0 1.1 0.0
0.4 1.1 0.0
0.8 1.1 0.0
1.2000000000000002 1.1 0.0
1.6 1.1 0.0
[...]
POINT_DATA 861
SCALARS Disp float 2
LOOKUP_TABLE default
0.0 0.0
0.00432066571698777 -0.1344952392047485
0.005337501443005109 -0.26183278614763317
0.006055979031923029 -0.3884804680716403
0.0069185334744392285 -0.514836587505217
0.00812344657348093 -0.6406718197818232
0.009989475394211819 -0.7656976612309839
0.012839564365330049 -0.889581747550374
0.017035133129920037 -1.0119142885404584
0.022962195096692468 -1.132167645924759
0.0310224597962843 -1.2496343692176364
0.04165888608029029 -1.3633753131165
0.05538069283560688 -1.4722038882388966
0.07275526731264868 -1.5747190258118768
0.09440280698729091 -1.6693386013678058
0.1209203409412079 -1.7543255229846153
0.15274486540443907 -1.8278192273025025
0.18998202228987557 -1.8878918127286373
0.23225142933392362 -1.9326780960925714
0.2786121586624715 -1.96059918976183
0.32751029140643306 -1.9705797707428407
0.3764084241503929 -1.9605991897617783
0.4227691534789333 -1.932678096092465
0.46503856052296805 -1.8878918127284834
0.5022757174083884 -1.8278192273023097
0.5341002418716021 -1.7543255229843961
0.5606177758255019 -1.6693386013675646
0.5822653155001263 -1.5747190258116208
0.5996398899771498 -1.4722038882386335
0.6133616967324489 -1.3633753131162383
0.623998123016439 -1.2496343692173824
0.6320583877160176 -1.1321676459245185
0.6379854496827794 -1.0119142885402348
0.6421810184473612 -0.889581747550171
0.6450311074184734 -0.7656976612308035
0.6468971362392004 -0.6406718197816691
0.6481020493382402 -0.5148365875050894
0.6489646037807559 -0.3884804680715416
0.6496830813696737 -0.2618327861475623
0.6506999170956902 -0.13449523920470716
0.6550205828126751 0.0
0.03356287924841695 -0.0018905943157471472
0.03647192219159186 -0.13462844046558547
0.03702959204785907 -0.26189599830984334
0.03767685492403287 -0.38855945058975855
0.03844803441583346 -0.5149399007152242
0.03949377107913681 -0.6408633180659037
0.04111946136203433 -0.7660550167815742
0.04363420905520245 -0.8901875732160756
0.047376098907178046 -1.0128597077986476
0.05269295084959919 -1.1335442154796387
0.05993943516157123 -1.2515378566394053
0.06949823600266523 -1.36591476610143
0.08181337710190723 -1.4755068024381552
0.09740762964567129 -1.5789293746709037
0.11685289797324153 -1.6746085882222264
0.1407090379699242 -1.7607890867092841
0.16939203349199217 -1.8355527579464705
0.2030176234803528 -1.8968734363566333
0.24126519841074998 -1.9427574794403897
0.28327617984744685 -1.9714842994121202
0.3275102914064268 -1.9817843959981767
0.37174440296540473 -1.9714842994120678
0.4137553844020947 -1.9427574794402809
0.45200295933248047 -1.896873436356476
0.4856285493208271 -1.835552757946274
0.5143115448428796 -1.7607890867090608
0.5381676848395467 -1.6746085882219812
0.5576129531671008 -1.5789293746706434
0.5732072057108486 -1.4755068024378881
0.585522346810075 -1.3659147661011641
0.5950811476511546 -1.251537856639148
0.6023276319631147 -1.1335442154793958
0.6076444839055261 -1.0128597077984223
0.6113863737574943 -0.890187573215871
0.6139011214506568 -0.7660550167813928
0.6155268117335511 -0.6408633180657491
0.616572548396853 -0.5149399007150967
0.6173437278886532 -0.38855945058965985
0.6179909907648269 -0.2618959983097724
0.6185486606210941 -0.13462844046554387
0.6214577035642648 -0.0018905943157449523
0.06633688882353393 -0.003365677123436041
0.06842033283961745 -0.13468895312966433
0.06874494970414044 -0.26193472150941516
0.06927452127640278 -0.38863119474649044
0.06996063750568987 -0.515027153138016
0.07086433221736461 -0.6410161832235808
0.07224970442563194 -0.7663505396824408
0.07442819849475667 -0.8907040126848795
0.07770879430887356 -1.013681334500723
0.08240480001944757 -1.1347531963485238
0.08882567358327448 -1.2532179407820165
0.097300087818207 -1.3681595900221675
0.10820958742845137 -1.4784287720900213
0.12201529895031894 -1.58266112283829
0.13924552009088859 -1.6792907543440556
0.1604158223360574 -1.7665473103354126
0.1859241111489693 -1.8424623954806443
0.21591198646282725 -1.9049225843532769
0.25012736872972413 -1.95181654802955
0.28778728510723445 -1.9812735985596268
0.3275102914064208 -1.9918701914448476
0.36723329770560503 -1.981273598559573
0.40489321408310913 -1.9518165480294394
0.4391085963499961 -1.9049225843531168
0.46909647166384183 -1.8424623954804447
0.4946047604767401 -1.7665473103351859
0.5157750627218949 -1.679290754343807
0.5330052838624503 -1.5826611228380263
0.5468109953843036 -1.4784287720897504
0.5577204949945339 -1.3681595900218984
0.5661949092294537 -1.2532179407817563
0.57261578279327 -1.1347531963482784
0.5773117885038351 -1.0136813345004956
0.5805923843179454 -0.8907040126846738
0.5827708783870652 -0.7663505396822584
0.5841562505953298 -0.6410161832234258
0.5850599453070037 -0.5150271531378883
0.5857460615362904 -0.3886311947463916
0.5862756331085527 -0.26193472150934427
0.5866002499730759 -0.13468895312962248
0.5886836939891552 -0.003365677123431586
0.09870003988255444 -0.004541152608034757
0.10024256182115204 -0.1347296751844894
0.10044151564329126 -0.2619565323266946
0.1008556421031638 -0.3886906692072824
0.10145062342245637 -0.5151032556088713
0.10223101635076699 -0.6411360771147352
0.10338810387704811 -0.7665852578491527
0.10522933527280277 -0.8911322197819685
0.10804496820751323 -1.0143785289704481
0.11211313559736075 -1.135793430555593
0.11770155959718306 -1.2546735359616028
0.12508697347827208 -1.370110643176266
0.13459234493592181 -1.4809717770318036
0.14661551975239603 -1.5859138567503386
0.16162271740034462 -1.6833824977563165
0.18009148185110802 -1.7715951439791204
0.20240288167550893 -1.8485419707460768
0.22872586925762117 -1.9120347833893059
0.2588826967191605 -1.9598520455063348
0.2922106113209281 -1.9899841352535743
0.32751029140641513 -2.000876376319095
0.36280997149189975 -1.9899841352535197
0.396137886093662 -1.959852045506223
0.42629471355519255 -1.9120347833891431
0.45261770113729405 -1.8485419707458743
0.4749291009616831 -1.7715951439788904
0.4933978654124341 -1.6833824977560647
0.5084050630603701 -1.5859138567500717
0.5204282378768319 -1.4809717770315296
0.5299336093344695 -1.3701106431759937
0.5373190232155475 -1.2546735359613397
0.5429074472153603 -1.1357934305553454
0.5469756146052001 -1.0143785289702192
0.5497912475399046 -0.8911322197817615
0.5516324789356551 -0.7665852578489696
0.5527895664619342 -0.64113607711458
0.5535699593902441 -0.5151032556087436
0.5541649407095364 -0.3886906692071835
0.554579067169409 -0.2619565323266237
0.5547780209915483 -0.1347296751844473
0.5563205429301422 -0.004541152608028267
0.13082467789570246 -0.005482705617955059
0.13197427092193972 -0.13476528423902326
0.13210374761989724 -0.2619687170175143
0.13241835369954613 -0.38873669064654237
0.13291720250002217 -0.5151693967853174
0.1335841713933994 -0.641232108945906
0.13453998948236748 -0.7667642258187856
0.13604586187363837 -0.8914735048702108
0.13839665819837862 -1.0149523207754338
0.14183408547183834 -1.1366649614577402
0.14658670150838782 -1.2559052386921086
0.15288361528891528 -1.371769093487464
0.16098852007494555 -1.4831383368386546
0.17123497509429633 -1.5886904384272251
0.1840292110097136 -1.686883794016692
0.19979255373336474 -1.7759300558658737
0.21889004307274007 -1.8537869081615512
0.24152124158586455 -1.9182035339898
0.26759150262756126 -1.9668614619747724
0.29658857681756917 -1.9976273166248222
0.3275102914064094 -2.0088252427554587
0.3584320059952477 -1.9976273166247667
0.38742908018525074 -1.9668614619746587
0.41349934122693965 -1.9182035339896353
0.4361305397400548 -1.853786908161346
0.4552280290794199 -1.775930055865641
0.4709913718030602 -1.6868837940164376
0.48378560771846685 -1.5886904384269553
0.494032062737807 -1.483138336838378
0.502136967523827 -1.3717690934871891
0.508433881304345 -1.2559052386918435
0.5131864973408863 -1.136664961457491
0.5166239246143393 -1.0149523207752031
0.5189747209390744 -0.8914735048700028
0.520480593330342 -0.7667642258186019
0.5214364114193085 -0.6412321089457506
0.5221033803126853 -0.5151693967851896
0.522602229113161 -0.3887366906464435
0.5229168351928098 -0.2619687170174434
0.5230463118907674 -0.13476528423898093
0.5241959049170017 -0.0054827056179468266
0.1627907248014949 -0.006232366983018172
0.16364149110425133 -0.1347999345244866
0.16372935913500633 -0.2619762560180577
0.1639603396525486 -0.3887701729975466
0.16436099551887468 -0.5152249826370762
0.16491849264462283 -0.6413100434989831
0.16569597623435336 -0.7668977032905727
0.1668932655613306 -0.8917302006714152
0.16877668912938268 -1.0154047915173983
0.17158446429945565 -1.1373694980450504
0.1755020610190807 -1.2569144997743285
0.1807133180779055 -1.3731376264285833
0.18742645673528777 -1.484932112563109
0.19591007492908907 -1.5909947487445375
0.2065003690399386 -1.689798621576272
0.21957058829248635 -1.7795532468242112
0.2354539305867237 -1.8581940437370106
0.25436707396399616 -1.923422155678273
0.2763146787086365 -1.9728399603120457
0.30095843152258145 -2.0042067832952637
0.32751029140640375 -2.015728922135094
0.35406215129022434 -2.0042067832952073
0.37870590410416494 -1.9728399603119304
0.4006535088487985 -1.9234221556781061
0.419566652226063 -1.8581940437368036
0.4354499945202917 -1.7795532468239763
0.4485202137728303 -1.6897986215760152
0.4591105078836709 -1.5909947487442657
0.4675941260774636 -1.48493211256283
0.4743072647348372 -1.3731376264283064
0.4795185217936541 -1.2569144997740613
0.48343611851327245 -1.1373694980447995
0.48624389368333976 -1.0154047915171664
0.4881273172513878 -0.8917302006712062
0.4893246065783624 -0.7668977032903889
0.4901020901680919 -0.6413100434988277
0.4906595872938397 -0.5152249826369484
0.49106024316016555 -0.38877017299744765
0.4912912236777077 -0.26197625601798674
0.4913790917084627 -0.1347999345244441
0.4922298580112169 -0.006232366983008495
0.1946416644223134 -0.0068227970703021775
0.1952627176058681 -0.13483443376618587
0.19532185052374035 -0.2619817345540042
0.19548084299444476 -0.3887926219956403
0.19578458032715004 -0.5152690006366459
0.1962305927098047 -0.6413734503147419
0.19684518580051785 -0.766996655154758
0.19776532910998862 -0.8919135396917254
0.19920438000938184 -1.0157389160088521
0.2013824647321691 -1.137910151426617
0.20447018655661786 -1.2577046244547538
0.20860232958776326 -1.3742200376083629
0.21393494263048707 -1.4863582684535426
0.22067275624173627 -1.5928331769215458
0.2290836955726826 -1.6921323648347222
0.23947572203314005 -1.7824694177356546
0.25215269694680137 -1.861764279661509
0.2673393920687002 -1.9276848002093434
0.2851222657570562 -1.9777787502899717
0.30535938257910317 -2.009717784658529
0.327510291406398 -2.021590711230302
0.34966120023369124 -2.0097177846584713
0.36989831705573456 -1.977778750289855
0.38768119074408486 -1.9276848002091753
0.402867885865977 -1.8617642796613003
0.4155448607796314 -1.7824694177354172
0.42593688724008133 -1.6921323648344637
0.4343478265710206 -1.5928331769212722
0.44108564018226304 -1.486358268453262
0.44641825322498013 -1.374220037608084
0.45055039625611915 -1.2577046244544852
0.45363811808056254 -1.1379101514263648
0.4558162028033453 -1.0157389160086194
0.45725525370273545 -0.8919135396915159
0.4581753970122044 -0.7669966551545739
0.4587899901029169 -0.6413734503145864
0.45923600248557117 -0.515269000636518
0.45953973981827634 -0.3887926219955412
0.4596987322889806 -0.26198173455393325
0.4597578652068528 -0.1348344337661433
0.4603789183904058 -0.006822797070291304
0.22640732908156794 -0.007279707527291884
0.22685122459308207 -0.13486976983965357
0.2268866536531657 -0.26198576706355264
0.2269809143555751 -0.3888054993575866
0.2271906533829337 -0.5153007349471218
0.22752078441869436 -0.6414233511211034
0.22798406180382919 -0.7670679433578217
0.22865277579086085 -0.8920375777580074
0.22968351709032178 -1.015965546487503
0.23125303702820382 -1.138292042952067
0.23351603931401083 -1.2582806887196998
0.2365779932887089 -1.3750219343718553
0.24054500028323605 -1.487423774672136
0.24555958446795167 -1.5942142185132393
0.2518183628637452 -1.693894580984804
0.2595629642223843 -1.784685862340912
0.26905197521601515 -1.8645014870902383
0.2805073990735877 -1.930989040767839
0.2940868995457821 -1.9816660908831187
0.3098368624890541 -2.014146184118617
0.327510291406392 -2.02640451734973
0.3451837203237287 -2.014146184118559
0.3609336832669977 -1.9816660908830008
0.3745131837391877 -1.9309890407676693
0.38596860759675483 -1.8645014870900283
0.3954576185903803 -1.7846858623406732
0.4032022199490137 -1.693894580984544
0.40946099834480204 -1.5942142185129642
0.41447558252951283 -1.487423774671854
0.418442589524035 -1.375021934371575
0.4215045434987284 -1.25828068871943
0.4237675457845313 -1.138292042951814
0.4253370657224102 -1.0159655464872699
0.4263678070218691 -0.8920375777577975
0.42703652100889955 -0.7670679433576374
0.42749979839403396 -0.6414233511209478
0.4278299294297944 -0.5153007349469939
0.42803966845715286 -0.3888054993574876
0.4281339291595622 -0.26198576706348164
0.4281693582196457 -0.13486976983961094
0.42861325373115866 -0.007279707527280103
0.2581042161038885 -0.007628568481892661
0.258419204405109 -0.13490653109588543
0.2584284900458013 -0.2619878435666237
0.25846314038231394 -0.38880991656487707
0.2585821864681886 -0.5153202083139925
0.2587937422640441 -0.6414583761113684
0.2591032186849963 -0.7671185106023839
0.25954662491422625 -0.8921155970813572
0.2602075433922648 -1.0161019970146072
0.2612080815587494 -1.1385283272373088
0.26266874151529723 -1.2586513472835734
0.26467471526832287 -1.3755521504102461
0.26729148655836005 -1.488138577224423
0.27060768309939714 -1.5951497240556942
0.27474896033342205 -1.6950982102993601
0.2798836256135458 -1.7862146603533295
0.2862128258726215 -1.8664143572768506
0.29395145456351013 -1.9333360021237276
0.3032928856565189 -1.9844893199866642
0.31444527515515364 -2.017468584315181
0.3275102914063856 -2.03015450985036
0.34057530765761695 -2.0174685843151225
0.35172769715624963 -1.9844893199865457
0.3610691282492552 -1.933336002123557
0.36880775694014 -1.8664143572766396
0.375136957199212 -1.7862146603530893
0.38027162247933194 -1.695098210299099
0.3844128997133535 -1.595149724055418
0.3877290962543878 -1.4881385772241402
0.39034586754442185 -1.375552150409965
0.3923518412974443 -1.258651347283303
0.3938125012539897 -1.138528327237055
0.39481303942047236 -1.0161019970143734
0.3954739578985098 -0.8921155970811471
0.39591736412773904 -0.7671185106021995
0.39622684054869095 -0.6414583761112128
0.39643839634454636 -0.5153202083138646
0.3965574424304209 -0.38880991656477804
0.3965920927669335 -0.2619878435665526
0.39660137840762566 -0.1349065310958428
0.39691636670884545 -0.007628568481880226
0.2897432150499927 -0.007896389761025755
0.289969421272992 -0.134945332839747
0.28995247186140405 -0.26198699409390164
0.2899309658545655 -0.3888067386000672
0.28996257565272393 -0.5153276601047597
0.29005485688999444 -0.6414775070552303
0.29020594510612485 -0.767148885674029
0.2904283397531656 -0.8921607320921824
0.2907554280649623 -1.0161716023239598
0.2912418116008885 -1.1386433956563142
0.29194552868274337 -1.2588368288741518
0.2929261454118817 -1.3758278158025252
0.29421397052956105 -1.4885195056292035
0.29585513015310083 -1.5956582605866987
0.29791353249229025 -1.695763556049594
0.300478361981938 -1.787075689356978
0.30368247376396906 -1.867518269475902
0.3077148058026998 -1.9347368071470012
0.3128217330073674 -1.9862427628451151
0.31926893459467914 -2.0196522570961974
0.327510291406379 -2.032810498591133
0.3357516482180789 -2.0196522570961384
0.3421988498053896 -1.986242762844996
0.34730577701005505 -1.93473680714683
0.3513381090487836 -1.8675182694756902
0.35454222083081277 -1.787075689356737
0.357107050320459 -1.6957635560493323
0.35916545265964706 -1.5956582605864222
0.3608066122831858 -1.4885195056289202
0.3620944374008639 -1.375827815802244
0.36307505413000096 -1.2588368288738812
0.36377877121185476 -1.13864339565606
0.3642651547477803 -1.0161716023237257
0.3645922430595765 -0.8921607320919721
0.36481463770661704 -0.7671488856738445
0.3649657259227474 -0.6414775070550747
0.3650580071600178 -0.5153276601046318
0.36508961695817627 -0.38880673859996817
0.3650681109513377 -0.2619869940938305
0.3650511615397497 -0.13494533283970436
0.3652773677627486 -0.007896389761012881
0.32133976419676413 -0.008104028331327714
0.32150354767100126 -0.134985358960324
0.3214628936599105 -0.26198290320720036
0.32138850049959383 -0.38879649494810276
0.3213357229976805 -0.5153234109661569
0.32130946295964985 -0.6414805128263792
0.3212999548618016 -0.7671581512280243
0.32129780613493664 -0.8921757379775725
0.32129767951475946 -1.0161939426528561
0.3212980189325246 -1.1386775068809498
0.3212982153423413 -1.258886808788997
0.3212985775035996 -1.3758996484324482
0.32129708183665007 -1.4886183186457125
0.32129212765111365 -1.5957906738565477
0.3212839608516679 -1.6959393372749452
0.3212874850566268 -1.7873146785687448
0.3213700063153647 -1.8678541526655288
0.3217009960676063 -1.935225566818217
0.3225784281569175 -1.9869589309802498
0.32435799713679664 -2.020680205713033
0.3275102914063722 -2.0343334849447654
0.33066258567594825 -2.0206802057129742
0.33244215465582705 -1.98695893098013
0.3333195867451375 -1.9352255668180454
0.333650576497379 -1.8678541526653167
0.3337330977561173 -1.787314678568504
0.3337366219610766 -1.6959393372746832
0.3337284551616314 -1.5957906738562713
0.3337235009760958 -1.488618318645429
0.3337220053091471 -1.3758996484321668
0.33372236747040596 -1.258886808788726
0.33372256388022314 -1.1386775068806958
0.33372290329798854 -1.016193942652622
0.3337227766778116 -0.8921757379773623
0.3337206279509468 -0.76715815122784
0.3337111198530987 -0.6414805128262234
0.3336848598150681 -0.5153234109660288
0.3336320823131549 -0.3887964949480036
0.33355768915283823 -0.2619829032071292
0.33351703514174746 -0.13498535896028133
0.3336808186159844 -0.008104028331314584
0.35290562168639283 -0.008267438828954227
0.35302623339477696 -0.13502403963268558
0.35296383012371957 -0.2619758764681034
0.3528400528089265 -0.3887795337560942
0.3527059505249874 -0.5153079170276083
0.3525633159299201 -0.6414675033505063
0.3523943199183863 -0.7671460279657076
0.35216709840184296 -0.8921602364634963
0.35183993688726145 -1.0161717286603191
0.3513542186931414 -1.138643463589879
0.35065133858485625 -1.258837107086974
0.34967112026856867 -1.3758275513282785
0.3483802915763023 -1.4885182225550753
0.3467293278046918 -1.5956555721445984
0.34465413336679723 -1.6957610590033052
0.3420968816996057 -1.7870887560632323
0.3390507168846036 -1.8675952317618094
0.3356294675194623 -1.9349771686420987
0.3321263703486943 -1.9867943984365115
0.32903371836195267 -2.0206607349221963
0.3275102914063657 -2.0348380074975037
0.32598686445077846 -2.0206607349221373
0.3228942124640366 -1.986794398436392
0.31939111529327 -1.9349771686419268
0.315969865928131 -1.867595231761598
0.31292370111313167 -1.787088756062992
0.3103664494459424 -1.6957610590030432
0.3082912550080503 -1.5956555721443224
0.3066402912364425 -1.488518222554792
0.305349462544179 -1.3758275513279974
0.3043692442278939 -1.258837107086703
0.3036663641196109 -1.1386434635896248
0.30318064592549204 -1.0161717286600853
0.30285348441091137 -0.892160236463286
0.30262626289436856 -0.7671460279655233
0.30245726688283514 -0.6414675033503506
0.30231463228776806 -0.5153079170274802
0.3021805300038291 -0.38877953375599494
0.3020567526890361 -0.26197587646803216
0.30199434941797876 -0.13502403963264295
0.30211496112636277 -0.0082674388289409
0.3844565899505189 -0.008393641865829282
0.3845423880266883 -0.13505964566976927
0.38445999000750497 -0.26196598445038544
0.38428999430535055 -0.38875625724223506
0.38407785079975587 -0.5152817649507244
0.38382198448719873 -0.6414388238608124
0.3834959920244505 -0.7671128594084585
0.3830487247948558 -0.8921146394757512
0.3823877094051272 -1.0161022396281552
0.3813882359501359 -1.1385286103029666
0.37992831628712115 -1.2586516892566477
0.3779222720241561 -1.37555156608713
0.37530324091228034 -1.488135849942238
0.3719787591682789 -1.5951435393434108
0.36782126557545763 -1.6950925554358642