# vtk DataFile Version 3.0
Some data
ASCII
DATASET UNSTRUCTURED_GRID
POINTS 861 float
0.0 0.0 0.0
0.4 0.0 0.0
0.8 0.0 0.0
1.2000000000000002 0.0 0.0
1.6 0.0 0.0
2.0 0.0 0.0
2.4000000000000004 0.0 0.0
2.8000000000000003 0.0 0.0
3.2 0.0 0.0
3.6 0.0 0.0
4.0 0.0 0.0
4.4 0.0 0.0
4.800000000000001 0.0 0.0
5.2 0.0 0.0
5.6000000000000005 0.0 0.0
6.0 0.0 0.0
6.4 0.0 0.0
6.800000000000001 0.0 0.0
7.2 0.0 0.0
7.6000000000000005 0.0 0.0
8.0 0.0 0.0
8.4 0.0 0.0
8.8 0.0 0.0
9.200000000000001 0.0 0.0
9.600000000000001 0.0 0.0
10.0 0.0 0.0
10.4 0.0 0.0
10.8 0.0 0.0
11.200000000000001 0.0 0.0
11.600000000000001 0.0 0.0
12.0 0.0 0.0
12.4 0.0 0.0
12.8 0.0 0.0
13.200000000000001 0.0 0.0
13.600000000000001 0.0 0.0
14.0 0.0 0.0
14.4 0.0 0.0
14.8 0.0 0.0
15.200000000000001 0.0 0.0
15.600000000000001 0.0 0.0
16.0 0.0 0.0
0.0 0.1 0.0
0.4 0.1 0.0
0.8 0.1 0.0
1.2000000000000002 0.1 0.0
1.6 0.1 0.0
2.0 0.1 0.0
2.4000000000000004 0.1 0.0
2.8000000000000003 0.1 0.0
3.2 0.1 0.0
3.6 0.1 0.0
4.0 0.1 0.0
4.4 0.1 0.0
4.800000000000001 0.1 0.0
5.2 0.1 0.0
5.6000000000000005 0.1 0.0
6.0 0.1 0.0
6.4 0.1 0.0
6.800000000000001 0.1 0.0
7.2 0.1 0.0
7.6000000000000005 0.1 0.0
8.0 0.1 0.0
8.4 0.1 0.0
8.8 0.1 0.0
9.200000000000001 0.1 0.0
9.600000000000001 0.1 0.0
10.0 0.1 0.0
10.4 0.1 0.0
10.8 0.1 0.0
11.200000000000001 0.1 0.0
11.600000000000001 0.1 0.0
12.0 0.1 0.0
12.4 0.1 0.0
12.8 0.1 0.0
13.200000000000001 0.1 0.0
13.600000000000001 0.1 0.0
14.0 0.1 0.0
14.4 0.1 0.0
14.8 0.1 0.0
15.200000000000001 0.1 0.0
15.600000000000001 0.1 0.0
16.0 0.1 0.0
0.0 0.2 0.0
0.4 0.2 0.0
0.8 0.2 0.0
1.2000000000000002 0.2 0.0
1.6 0.2 0.0
2.0 0.2 0.0
2.4000000000000004 0.2 0.0
2.8000000000000003 0.2 0.0
3.2 0.2 0.0
3.6 0.2 0.0
4.0 0.2 0.0
4.4 0.2 0.0
4.800000000000001 0.2 0.0
5.2 0.2 0.0
5.6000000000000005 0.2 0.0
6.0 0.2 0.0
6.4 0.2 0.0
6.800000000000001 0.2 0.0
7.2 0.2 0.0
7.6000000000000005 0.2 0.0
8.0 0.2 0.0
8.4 0.2 0.0
8.8 0.2 0.0
9.200000000000001 0.2 0.0
9.600000000000001 0.2 0.0
10.0 0.2 0.0
10.4 0.2 0.0
10.8 0.2 0.0
11.200000000000001 0.2 0.0
11.600000000000001 0.2 0.0
12.0 0.2 0.0
12.4 0.2 0.0
12.8 0.2 0.0
13.200000000000001 0.2 0.0
13.600000000000001 0.2 0.0
14.0 0.2 0.0
14.4 0.2 0.0
14.8 0.2 0.0
15.200000000000001 0.2 0.0
15.600000000000001 0.2 0.0
16.0 0.2 0.0
0.0 0.30000000000000004 0.0
0.4 0.30000000000000004 0.0
0.8 0.30000000000000004 0.0
1.2000000000000002 0.30000000000000004 0.0
1.6 0.30000000000000004 0.0
2.0 0.30000000000000004 0.0
2.4000000000000004 0.30000000000000004 0.0
2.8000000000000003 0.30000000000000004 0.0
3.2 0.30000000000000004 0.0
3.6 0.30000000000000004 0.0
4.0 0.30000000000000004 0.0
4.4 0.30000000000000004 0.0
4.800000000000001 0.30000000000000004 0.0
5.2 0.30000000000000004 0.0
5.6000000000000005 0.30000000000000004 0.0
6.0 0.30000000000000004 0.0
6.4 0.30000000000000004 0.0
6.800000000000001 0.30000000000000004 0.0
7.2 0.30000000000000004 0.0
7.6000000000000005 0.30000000000000004 0.0
8.0 0.30000000000000004 0.0
8.4 0.30000000000000004 0.0
8.8 0.30000000000000004 0.0
9.200000000000001 0.30000000000000004 0.0
9.600000000000001 0.30000000000000004 0.0
10.0 0.30000000000000004 0.0
10.4 0.30000000000000004 0.0
10.8 0.30000000000000004 0.0
11.200000000000001 0.30000000000000004 0.0
11.600000000000001 0.30000000000000004 0.0
12.0 0.30000000000000004 0.0
12.4 0.30000000000000004 0.0
12.8 0.30000000000000004 0.0
13.200000000000001 0.30000000000000004 0.0
13.600000000000001 0.30000000000000004 0.0
14.0 0.30000000000000004 0.0
14.4 0.30000000000000004 0.0
14.8 0.30000000000000004 0.0
15.200000000000001 0.30000000000000004 0.0
15.600000000000001 0.30000000000000004 0.0
16.0 0.30000000000000004 0.0
0.0 0.4 0.0
0.4 0.4 0.0
0.8 0.4 0.0
1.2000000000000002 0.4 0.0
1.6 0.4 0.0
2.0 0.4 0.0
2.4000000000000004 0.4 0.0
2.8000000000000003 0.4 0.0
3.2 0.4 0.0
3.6 0.4 0.0
4.0 0.4 0.0
4.4 0.4 0.0
4.800000000000001 0.4 0.0
5.2 0.4 0.0
5.6000000000000005 0.4 0.0
6.0 0.4 0.0
6.4 0.4 0.0
6.800000000000001 0.4 0.0
7.2 0.4 0.0
7.6000000000000005 0.4 0.0
8.0 0.4 0.0
8.4 0.4 0.0
8.8 0.4 0.0
9.200000000000001 0.4 0.0
9.600000000000001 0.4 0.0
10.0 0.4 0.0
10.4 0.4 0.0
10.8 0.4 0.0
11.200000000000001 0.4 0.0
11.600000000000001 0.4 0.0
12.0 0.4 0.0
12.4 0.4 0.0
12.8 0.4 0.0
13.200000000000001 0.4 0.0
13.600000000000001 0.4 0.0
14.0 0.4 0.0
14.4 0.4 0.0
14.8 0.4 0.0
15.200000000000001 0.4 0.0
15.600000000000001 0.4 0.0
16.0 0.4 0.0
0.0 0.5 0.0
0.4 0.5 0.0
0.8 0.5 0.0
1.2000000000000002 0.5 0.0
1.6 0.5 0.0
2.0 0.5 0.0
2.4000000000000004 0.5 0.0
2.8000000000000003 0.5 0.0
3.2 0.5 0.0
3.6 0.5 0.0
4.0 0.5 0.0
4.4 0.5 0.0
4.800000000000001 0.5 0.0
5.2 0.5 0.0
5.6000000000000005 0.5 0.0
6.0 0.5 0.0
6.4 0.5 0.0
6.800000000000001 0.5 0.0
7.2 0.5 0.0
7.6000000000000005 0.5 0.0
8.0 0.5 0.0
8.4 0.5 0.0
8.8 0.5 0.0
9.200000000000001 0.5 0.0
9.600000000000001 0.5 0.0
10.0 0.5 0.0
10.4 0.5 0.0
10.8 0.5 0.0
11.200000000000001 0.5 0.0
11.600000000000001 0.5 0.0
12.0 0.5 0.0
12.4 0.5 0.0
12.8 0.5 0.0
13.200000000000001 0.5 0.0
13.600000000000001 0.5 0.0
14.0 0.5 0.0
14.4 0.5 0.0
14.8 0.5 0.0
15.200000000000001 0.5 0.0
15.600000000000001 0.5 0.0
16.0 0.5 0.0
0.0 0.6000000000000001 0.0
0.4 0.6000000000000001 0.0
0.8 0.6000000000000001 0.0
1.2000000000000002 0.6000000000000001 0.0
1.6 0.6000000000000001 0.0
2.0 0.6000000000000001 0.0
2.4000000000000004 0.6000000000000001 0.0
2.8000000000000003 0.6000000000000001 0.0
3.2 0.6000000000000001 0.0
3.6 0.6000000000000001 0.0
4.0 0.6000000000000001 0.0
4.4 0.6000000000000001 0.0
4.800000000000001 0.6000000000000001 0.0
5.2 0.6000000000000001 0.0
5.6000000000000005 0.6000000000000001 0.0
6.0 0.6000000000000001 0.0
6.4 0.6000000000000001 0.0
6.800000000000001 0.6000000000000001 0.0
7.2 0.6000000000000001 0.0
7.6000000000000005 0.6000000000000001 0.0
8.0 0.6000000000000001 0.0
8.4 0.6000000000000001 0.0
8.8 0.6000000000000001 0.0
9.200000000000001 0.6000000000000001 0.0
9.600000000000001 0.6000000000000001 0.0
10.0 0.6000000000000001 0.0
10.4 0.6000000000000001 0.0
10.8 0.6000000000000001 0.0
11.200000000000001 0.6000000000000001 0.0
11.600000000000001 0.6000000000000001 0.0
12.0 0.6000000000000001 0.0
12.4 0.6000000000000001 0.0
12.8 0.6000000000000001 0.0
13.200000000000001 0.6000000000000001 0.0
13.600000000000001 0.6000000000000001 0.0
14.0 0.6000000000000001 0.0
14.4 0.6000000000000001 0.0
14.8 0.6000000000000001 0.0
15.200000000000001 0.6000000000000001 0.0
15.600000000000001 0.6000000000000001 0.0
16.0 0.6000000000000001 0.0
0.0 0.7000000000000001 0.0
0.4 0.7000000000000001 0.0
0.8 0.7000000000000001 0.0
1.2000000000000002 0.7000000000000001 0.0
1.6 0.7000000000000001 0.0
2.0 0.7000000000000001 0.0
2.4000000000000004 0.7000000000000001 0.0
2.8000000000000003 0.7000000000000001 0.0
3.2 0.7000000000000001 0.0
3.6 0.7000000000000001 0.0
4.0 0.7000000000000001 0.0
4.4 0.7000000000000001 0.0
4.800000000000001 0.7000000000000001 0.0
5.2 0.7000000000000001 0.0
5.6000000000000005 0.7000000000000001 0.0
6.0 0.7000000000000001 0.0
6.4 0.7000000000000001 0.0
6.800000000000001 0.7000000000000001 0.0
7.2 0.7000000000000001 0.0
7.6000000000000005 0.7000000000000001 0.0
8.0 0.7000000000000001 0.0
8.4 0.7000000000000001 0.0
8.8 0.7000000000000001 0.0
9.200000000000001 0.7000000000000001 0.0
9.600000000000001 0.7000000000000001 0.0
10.0 0.7000000000000001 0.0
10.4 0.7000000000000001 0.0
10.8 0.7000000000000001 0.0
11.200000000000001 0.7000000000000001 0.0
11.600000000000001 0.7000000000000001 0.0
12.0 0.7000000000000001 0.0
12.4 0.7000000000000001 0.0
12.8 0.7000000000000001 0.0
13.200000000000001 0.7000000000000001 0.0
13.600000000000001 0.7000000000000001 0.0
14.0 0.7000000000000001 0.0
14.4 0.7000000000000001 0.0
14.8 0.7000000000000001 0.0
15.200000000000001 0.7000000000000001 0.0
15.600000000000001 0.7000000000000001 0.0
16.0 0.7000000000000001 0.0
0.0 0.8 0.0
0.4 0.8 0.0
0.8 0.8 0.0
1.2000000000000002 0.8 0.0
1.6 0.8 0.0
2.0 0.8 0.0
2.4000000000000004 0.8 0.0
2.8000000000000003 0.8 0.0
3.2 0.8 0.0
3.6 0.8 0.0
4.0 0.8 0.0
4.4 0.8 0.0
4.800000000000001 0.8 0.0
5.2 0.8 0.0
5.6000000000000005 0.8 0.0
6.0 0.8 0.0
6.4 0.8 0.0
6.800000000000001 0.8 0.0
7.2 0.8 0.0
7.6000000000000005 0.8 0.0
8.0 0.8 0.0
8.4 0.8 0.0
8.8 0.8 0.0
9.200000000000001 0.8 0.0
9.600000000000001 0.8 0.0
10.0 0.8 0.0
10.4 0.8 0.0
10.8 0.8 0.0
11.200000000000001 0.8 0.0
11.600000000000001 0.8 0.0
12.0 0.8 0.0
12.4 0.8 0.0
12.8 0.8 0.0
13.200000000000001 0.8 0.0
13.600000000000001 0.8 0.0
14.0 0.8 0.0
14.4 0.8 0.0
14.8 0.8 0.0
15.200000000000001 0.8 0.0
15.600000000000001 0.8 0.0
16.0 0.8 0.0
0.0 0.9 0.0
0.4 0.9 0.0
0.8 0.9 0.0
1.2000000000000002 0.9 0.0
1.6 0.9 0.0
2.0 0.9 0.0
2.4000000000000004 0.9 0.0
2.8000000000000003 0.9 0.0
3.2 0.9 0.0
3.6 0.9 0.0
4.0 0.9 0.0
4.4 0.9 0.0
4.800000000000001 0.9 0.0
5.2 0.9 0.0
5.6000000000000005 0.9 0.0
6.0 0.9 0.0
6.4 0.9 0.0
6.800000000000001 0.9 0.0
7.2 0.9 0.0
7.6000000000000005 0.9 0.0
8.0 0.9 0.0
8.4 0.9 0.0
8.8 0.9 0.0
9.200000000000001 0.9 0.0
9.600000000000001 0.9 0.0
10.0 0.9 0.0
10.4 0.9 0.0
10.8 0.9 0.0
11.200000000000001 0.9 0.0
11.600000000000001 0.9 0.0
12.0 0.9 0.0
12.4 0.9 0.0
12.8 0.9 0.0
13.200000000000001 0.9 0.0
13.600000000000001 0.9 0.0
14.0 0.9 0.0
14.4 0.9 0.0
14.8 0.9 0.0
15.200000000000001 0.9 0.0
15.600000000000001 0.9 0.0
16.0 0.9 0.0
0.0 1.0 0.0
0.4 1.0 0.0
0.8 1.0 0.0
1.2000000000000002 1.0 0.0
1.6 1.0 0.0
2.0 1.0 0.0
2.4000000000000004 1.0 0.0
2.8000000000000003 1.0 0.0
3.2 1.0 0.0
3.6 1.0 0.0
4.0 1.0 0.0
4.4 1.0 0.0
4.800000000000001 1.0 0.0
5.2 1.0 0.0
5.6000000000000005 1.0 0.0
6.0 1.0 0.0
6.4 1.0 0.0
6.800000000000001 1.0 0.0
7.2 1.0 0.0
7.6000000000000005 1.0 0.0
8.0 1.0 0.0
8.4 1.0 0.0
8.8 1.0 0.0
9.200000000000001 1.0 0.0
9.600000000000001 1.0 0.0
10.0 1.0 0.0
10.4 1.0 0.0
10.8 1.0 0.0
11.200000000000001 1.0 0.0
11.600000000000001 1.0 0.0
12.0 1.0 0.0
12.4 1.0 0.0
12.8 1.0 0.0
13.200000000000001 1.0 0.0
13.600000000000001 1.0 0.0
14.0 1.0 0.0
14.4 1.0 0.0
14.8 1.0 0.0
15.200000000000001 1.0 0.0
15.600000000000001 1.0 0.0
16.0 1.0 0.0
0.0 1.1 0.0
0.4 1.1 0.0
0.8 1.1 0.0
1.2000000000000002 1.1 0.0
1.6 1.1 0.0
[...]
POINT_DATA 861
SCALARS Disp float 2
LOOKUP_TABLE default
0.0 0.0
0.006109496112284361 -0.28182629353283845
0.007515916889279658 -0.5540150864535821
0.0083177335929286 -0.8250710347248178
0.009376864980302197 -1.0957342668221293
0.01115072206641592 -1.3655452393306662
0.0143427605252112 -1.6338872828967477
0.019823809290149954 -1.8999818289111081
0.02862198500936608 -2.162851377430991
0.041857241827049835 -2.4212138218586428
0.06064125320734607 -2.673333878564948
0.08600807746022929 -2.916943888678093
0.11888219962944165 -3.149286570499905
0.16006854140738594 -3.367245265469764
0.21024544421642444 -3.5674347121642502
0.2698947250948694 -3.7462771492852736
0.339179741705986 -3.9001033163734657
0.41780321253451425 -4.025312418284424
0.5048901102458204 -4.118620594467565
0.5989452097590923 -4.177312684854338
0.6976042219483836 -4.19956414052383
0.7962632341376689 -4.177312684854205
0.8903183336509217 -4.118620594467298
0.9774052313621934 -4.025312418284036
1.0560287021906776 -3.9001033163729786
1.1253137188017468 -3.746277149284717
1.1849629996801432 -3.56743471216364
1.235139902489133 -3.3672452654691187
1.2763262442670293 -3.1492865704992434
1.309200366436196 -2.916943888677437
1.3345671906890382 -2.6733338785643146
1.3533512020693004 -2.421213821858049
1.3665864588869587 -2.1628513774304428
1.3753846346061556 -1.8999818289106134
1.3808656833710813 -1.633887282896312
1.3840577218298684 -1.3655452393302974
1.3858315789159785 -1.0957342668218277
1.386890710303351 -0.825071034724587
1.3876925270069995 -0.5540150864534211
1.3890989477839935 -0.28182629353274996
1.3952084438962742 0.0
0.07029586757561586 -0.0025224674589429666
0.07459988477764476 -0.2821211028904648
0.0753268758607236 -0.5540783728799915
0.07603502377491257 -0.8251633401854764
0.07695890189097533 -1.0958928981119198
0.07846038148614823 -1.3659079455810546
0.08120068075223644 -1.6346498784603882
0.0860017863943788 -1.901378892094432
0.09382836261501601 -2.1651452419312514
0.10570213589368573 -2.4246716445225944
0.12261477103617568 -2.6782085335899217
0.1454740453466805 -2.9234647441940735
0.1750971937638744 -3.157658134205027
0.2122151635806898 -3.3776459263924092
0.25744655877746364 -3.580008387114714
0.3112408603254818 -3.761110190135935
0.3737708919242755 -3.9171917348632173
0.4448065606068391 -4.044529325369476
0.523597615953196 -4.139689981628344
0.6087105795040361 -4.199781106400359
0.6976042219483674 -4.222613476258036
0.7864978643926928 -4.1997811064002235
0.8716108279435152 -4.139689981628069
0.9504018832898415 -4.044529325369078
1.0214375519723669 -3.9171917348627194
1.0839675835711184 -3.761110190135367
1.137761885119093 -3.580008387114093
1.1829932803158225 -3.377645926391752
1.220111250132595 -3.1576581342043544
1.2497343985497478 -2.9234647441934074
1.2725936728602156 -2.67820853358928
1.289506308002675 -2.424671644521993
1.301380081281321 -2.1651452419306976
1.309206657501941 -1.9013788920939334
1.3140077631440716 -1.6346498784599501
1.3167480624101529 -1.3659079455806844
1.3182495420053226 -1.0958928981116178
1.3191734201213847 -0.8251633401852457
1.3198815680355735 -0.5540783728798304
1.3206085591186523 -0.2821211028903759
1.3249125763206755 -0.0025224674589404057
0.13957124307436855 -0.0045333499035481815
0.14274322115518 -0.28226866075262147
0.14315749384675133 -0.5541099666602067
0.14373417430210353 -0.825244319648446
0.14453368580080853 -1.0960181270632732
0.14579028577068373 -1.3661949254021923
0.14809069065660543 -1.6352826094223247
0.15221488218052584 -1.9025795688544296
0.15905240913199808 -2.1671570234735498
0.16952975704316675 -2.427735286293631
0.18452450321082595 -2.6825468817138254
0.20482848201176157 -2.9292781358954585
0.23115358262104563 -3.1651277145828636
0.2641453374870594 -3.3869335346680014
0.30436714932649644 -3.591246156928038
0.35223878482418197 -3.7743816072149383
0.40795435136184693 -3.932503782000322
0.4713667992241141 -4.061780349952798
0.5418350036585153 -4.158633357422117
0.6179887926108881 -4.219952691433718
0.6976042219483515 -4.243305072856714
0.7772196512858097 -4.21995269143358
0.8533734402381659 -4.158633357421836
0.9238416446725405 -4.061780349952392
0.9872540925347744 -3.9325037819998148
1.0429696590724016 -3.77438160721436
1.0908412945700485 -3.5912461569274066
1.1310631064094459 -3.386933534667334
1.1640548612754218 -3.1651277145821815
1.1903799618846695 -2.929278135894783
1.2106839406855723 -2.6825468817131757
1.2256786868532041 -2.427735286293023
1.2361560347643514 -2.167157023472991
1.242993561715808 -1.902579568853928
1.2471177532397182 -1.6352826094218846
1.249418158125634 -1.3661949254018215
1.2506747580955069 -1.096018127062971
1.2514742695942114 -0.8252443196482152
1.2520509500495636 -0.5541099666600457
1.2524652227411348 -0.28226866075253226
1.2556372008219407 -0.004533349903542886
0.20830610237828634 -0.006153220364947436
0.2107138206718392 -0.2823693769294219
0.21096566311289444 -0.5541271402554641
0.21141629116196964 -0.8253091344094957
0.2120964777409267 -1.096118698122366
0.21313729986719152 -1.3664148872544908
0.21502337809841837 -1.6357899252122288
0.218479189993019 -1.9035847613988368
0.22432169341398242 -2.168882745793096
0.2333824571091522 -2.4303975057015887
0.24643005298364343 -2.6863399814629174
0.26414476192407255 -2.9343752641037315
0.28713731971901824 -3.1716860564651874
0.31596679242768094 -3.3950963392694375
0.35113123069302177 -3.601134569862639
0.3930278329449225 -3.7860778409617346
0.44187619194378325 -3.9460278849037698
0.49761018608810564 -4.077056929596149
0.5597076480038778 -4.175441949129578
0.6269983403260426 -4.237880155087253
0.6976042219483364 -4.26175763816351
0.7682101035706248 -4.237880155087112
0.8355007958927748 -4.175441949129293
0.8975982578085233 -4.077056929595736
0.9533322519528167 -3.946027884903254
1.0021806109516447 -3.786077840961148
1.0440772132035114 -3.6011345698619985
1.0792416514688175 -3.395096339268761
1.1080711241774468 -3.1716860564644973
1.131063681972361 -2.934375264103048
1.1487783909127613 -2.6863399814622615
1.1618259867872287 -2.430397505700975
1.1708867504823794 -2.168882745792533
1.1767292539033294 -1.9035847613983319
1.180185065797921 -1.6357899252117871
1.1820711440291432 -1.3664148872541193
1.1831119661554064 -1.0961186981220639
1.1837921527343631 -0.8253091344092649
1.1842427807834384 -0.5541271402553031
1.1844946232244935 -0.28236937692933217
1.1869023415180413 -0.0061532203649395665
0.2767335122415602 -0.007464981722984443
0.2785674231960559 -0.28244725391405057
0.27873139801269176 -0.5541369572474991
0.27907635780208545 -0.8253592006931385
0.27964334341309965 -1.0961994695631228
0.2804938793855918 -1.3665803796327747
0.28200606958654056 -1.6361804323600722
0.2848096855564118 -1.904397536427779
0.2896640490457137 -2.1703223036681174
0.29730248498730893 -2.4326551004811607
0.3083892194851209 -2.6895832878064576
0.3234974219120509 -2.93875067174156
0.34313618440535143 -3.1773273759609
0.36777980358951573 -3.402127990588875
0.39786487280403476 -3.609665242020266
0.43375292040819025 -3.7961885393343757
0.4756840758088275 -3.9577515917972192
0.5236758052263425 -4.090344792405193
0.577366041364082 -4.190117752995186
0.6358482515902122 -4.253603355539432
0.6976042219483213 -4.27803546677461
0.7593601923064255 -4.253603355539288
0.8178424025325426 -4.190117752994896
0.871532638670261 -4.090344792404774
0.9195243680877514 -3.9577515917966966
0.96145552348836 -3.7961885393337815
0.9973435710924861 -3.6096652420196174
1.0274286403069754 -3.402127990588191
1.0520722594911112 -3.1773273759602025
1.0717110219843846 -2.9387506717408702
1.0868192244112902 -2.689583287805796
1.0979059589090818 -2.4326551004805426
1.1055443948506607 -2.1703223036675503
1.1103987583399508 -1.9043975364272718
1.1132023743098147 -1.6361804323596292
1.11471456451076 -1.3665803796324028
1.1155651004832507 -1.09619946956282
1.116132086094265 -0.8253592006929077
1.1164770458836588 -0.5541369572473381
1.1166410207002946 -0.28244725391396064
1.118474931654786 -0.00746498172297426
0.34495829728718674 -0.008521043636527583
0.34633964653685234 -0.28251046917769684
0.3464527969245982 -0.5541441208767934
0.34671104720033513 -0.8253963455127741
0.3471692508394378 -1.0962642970554104
0.3478539251453398 -1.3667030219798244
0.34903203301640917 -1.6364681641853125
0.3512277415569755 -1.9050244404247676
0.3551073341006051 -2.171478849778526
0.36133198786005083 -2.4345090679871997
0.37045953341980226 -2.692276180724555
0.38295877034912595 -2.942403186587568
0.39924026431952875 -3.1820498833677373
0.41969234243921477 -3.4080261483537924
0.4446869465591446 -3.6168355594130674
0.4745549304411406 -3.804707947857767
0.5095370688241557 -3.9676629304926645
0.5497254760509931 -4.101629877074845
0.5949533216289047 -4.202658280869089
0.6446260730687913 -4.2671427316440855
0.6976042219483062 -4.292176745897415
0.750582370827817 -4.26714273164394
0.8002551222676912 -4.202658280868795
0.8454829678455853 -4.10162987707442
0.8856713750724018 -3.9676629304921356
0.9206535134553928 -3.8047079478571657
0.950521497337364 -3.6168355594124124
0.975516101457269 -3.408026148353102
0.9959681795769315 -3.182049883367033
1.0122496735473119 -2.942403186586873
1.0247489104766152 -2.6922761807238884
1.0338764560363496 -2.434509067986577
1.0401011097957817 -2.1714788497779556
1.0439807023394017 -1.9050244404242584
1.0461764108799623 -1.6364681641848684
1.0473545187510291 -1.3667030219794523
1.0480391930569304 -1.0962642970551075
1.048497396696033 -0.8253963455125433
1.0487556469717698 -0.5541441208766325
1.0488687973595154 -0.2825104691776066
1.0502501466091776 -0.008521043636515502
0.413035006101986 -0.009361453736141745
0.41405476117176265 -0.2825622813027748
0.4141353092735199 -0.5541509929522358
0.41432014337375 -0.8254220864757704
0.41467210771392116 -1.0963155270289993
0.4152092931198989 -1.366792950850144
0.4160924802402727 -1.6366701450329646
0.4177326853250599 -1.9054806617366404
0.4206828380424126 -2.1723594998318005
0.42551383575620405 -2.4359643158587736
0.4326992173798693 -2.694422451271236
0.44260315787201804 -2.9453358896259236
0.455539327107757 -3.185856441266625
0.4718112935032779 -3.4127933376302093
0.49172623101163665 -3.62264691344184
0.5155747289286282 -3.8116354066009146
0.54359445640321 -3.9757548850622135
0.5759360849448953 -4.1108979578575315
0.6126239992501834 -4.213051168728839
0.6534184379229501 -4.278499351409391
0.6976042219482907 -4.304198252991618
0.7417900059736278 -4.278499351409244
0.782584444646384 -4.2130511687285415
0.8192723589516582 -4.1108979578571025
0.851613987493326 -3.97575488506168
0.8796337149678882 -3.8116354066003075
0.9034822128848594 -3.6226469134411796
0.9233971503931985 -3.412793337629514
0.9396691167887011 -3.185856441265916
0.9526052860244221 -2.945335889625224
0.9625092265165547 -2.6944224512705652
0.969694608140206 -2.435964315858148
0.974525605853987 -2.172359499831228
0.9774757585713324 -1.9054806617361295
0.9791159636561152 -1.6366701450325196
0.979999150776487 -1.3667929508497716
0.9805363361824645 -1.0963155270286964
0.9808883005226355 -0.8254220864755396
0.9810731346228656 -0.5541509929520748
0.9811536827246228 -0.28256228130268435
0.9821734377943968 -0.009361453736128053
0.48099980726801617 -0.010018529758944735
0.48173084368195584 -0.28260514821801963
0.4817867955514134 -0.5541580673159631
0.481905667917906 -0.8254376862996755
0.48215288132710976 -1.0963535948590175
0.4825513164870791 -1.3668582015188966
0.4831816349305744 -1.636803323586
0.48432132499287783 -1.9057869783365171
0.48640624019361123 -2.1729803389098152
0.4898940955002337 -2.43703072942971
0.49516865742011085 -2.69603025203695
0.502504991675913 -2.947556523757167
0.5121256558972828 -3.188755021299109
0.5242475930054135 -3.416437237264067
0.5391079542381434 -3.6271060813728275
0.5569578001137454 -3.8169754110211622
0.578025115021963 -3.982026562230193
0.6024918281903261 -4.118136838454221
0.6305466387560513 -4.221273504232671
0.66232290778778 -4.287653100861361
0.6976042219482749 -4.314095194027377
0.7328855361087673 -4.2876531008612115
0.7646618051404879 -4.221273504232371
0.7927166157062022 -4.118136838453788
0.8171833288745513 -3.9820265622296556
0.8382506437827537 -3.8169754110205507
0.8561004896583402 -3.627106081372163
0.8709608508910557 -3.4164372372633673
0.883082787999173 -3.1887550212983964
0.8927034522205296 -2.947556523756464
0.9000397864763198 -2.6960302520362767
0.9053143483961864 -2.4370307294290816
0.9088022037028015 -2.172980338909241
0.9108871189035297 -1.905786978336005
0.9120268089658302 -1.6368033235855546
0.9126571274093243 -1.3668582015185242
0.9130555625692934 -1.0963535948587146
0.9133027759784971 -0.8254376862994447
0.9134216483449896 -0.554158067315802
0.9134776002144472 -0.28260514821792915
0.9142086366283848 -0.010018529758929764
0.5488751252578581 -0.010522461345132655
0.5493845349444657 -0.2826412965698669
0.5494145170691626 -0.5541645091272532
0.5494709988216705 -0.825444142647044
0.5496157159318442 -1.0963778888517928
0.5498748732694213 -1.3669034036999406
0.5502836884655942 -1.6368856295037726
0.5509886713998098 -1.905968811007695
0.5522844108790992 -2.173366641618934
0.5545056235864396 -2.437727750594059
0.5579291976663279 -2.697114022739977
0.5627454899246439 -2.9490785884949733
0.56909452845622 -3.190759477609998
0.5771134976676021 -3.4189718918477157
0.5869653659410635 -3.6302255498766636
0.5988500610933356 -3.8207383383194653
0.6129900680083498 -3.986485824927709
0.6295959693028221 -4.123340505191205
0.6489277217654009 -4.227293589871272
0.6714626451736881 -4.294559650036672
0.6976042219482584 -4.321838461495877
0.7237457987228271 -4.294559650036522
0.7462807221311091 -4.22729358987097
0.76561247459368 -4.123340505190769
0.7822183758881424 -3.986485824927169
0.7963583828031459 -3.820738338318851
0.808243077955408 -3.630225549875995
0.8180949462288599 -3.4189718918470136
0.8261139154402338 -3.1907594776092827
0.8324629539718016 -2.949078588494267
0.8372792462301097 -2.6971140227393016
0.8407028203099912 -2.437727750593429
0.8429240330173269 -2.173366641618359
0.8442197724966134 -1.9059688110071822
0.8449247554308271 -1.6368856295033274
0.8453335706269995 -1.3669034036995678
0.8455927279645764 -1.0963778888514901
0.8457374450747501 -0.825444142646813
0.845793926827258 -0.5541645091270923
0.8458239089519548 -0.2826412965697764
0.8463333186385612 -0.010522461345116687
0.6166772227728727 -0.010903280551937273
0.6170262491265229 -0.2826734976671825
0.6170252793718275 -0.5541684829627045
0.6170202579012329 -0.8254422016034051
0.6170652601866932 -1.0963880665117425
0.6171813275747287 -1.3669291498210838
0.6173820886773559 -1.6369312184465457
0.6177173828225987 -1.9060572503314799
0.6183160821089628 -2.1735553821024043
0.6193699527503058 -2.438088615417625
0.6210306469917339 -2.6977010737593994
0.6234004846297964 -2.9499257340621488
0.6265394781556063 -3.191892387405173
0.6305147829804474 -3.4204205172516176
0.635418641742247 -3.6320275025628077
0.6413872824788295 -3.822942126569489
0.6486232948150649 -3.9891482418968582
0.6573920472111209 -4.126520814881329
0.6680015287250347 -4.231084871038649
0.6810262507089255 -4.299145713135769
0.6976042219482416 -4.32736444761438
0.7141821931875568 -4.299145713135618
0.7272069151714454 -4.231084871038345
0.7378163966853541 -4.126520814880891
0.7465851490814042 -3.989148241896316
0.7538211614176341 -3.822942126568873
0.7597898021542124 -3.632027502562138
0.7646936609160083 -3.4204205172509137
0.768668965740846 -3.1918923874044562
0.7718079592666522 -2.949925734061441
0.7741777969047112 -2.697701073758722
0.7758384911461363 -2.438088615416994
0.7768923617874774 -2.1735553821018287
0.7774910610738404 -1.9060572503309667
0.7778263552190825 -1.6369312184461002
0.7780271163217096 -1.3669291498207108
0.7781431837097451 -1.0963880665114398
0.7781881859952052 -0.8254422016031743
0.7781831645246107 -0.5541684829625434
0.7781821947699151 -0.28267349766709204
0.7785312211235645 -0.010903280551920587
0.6844238256907176 -0.011187161468711772
0.6846595341187958 -0.2827049412344165
0.6846241620424067 -0.554167982357059
0.6845580716427534 -0.8254323219629509
0.6845058752722526 -1.096384193666356
0.6844789784635069 -1.3669346170971453
0.68446845413604 -1.6369454973941535
0.6844645621479217 -1.9060832240916534
0.684462995422144 -2.173604087274979
0.6844628361623937 -2.4381793455649587
0.6844629272760591 -2.6978518945320666
0.6844611452235525 -2.9501520801954704
0.6844511593183614 -3.1922054160008946
0.6844308933062379 -3.4208329328195406
0.6844192509863178 -3.6325595907396253
0.6844913761511074 -3.823628945957374
0.684825008385071 -3.990048550891953
0.6857486018799877 -4.127717913822807
0.6877121370322679 -4.232677221270249
0.6912179197653061 -4.301338984833992
0.697604221948224 -4.330564160814903
0.7039905241311428 -4.30133898483384
0.7074963068641803 -4.2326772212699435
0.7094598420164586 -4.1277179138223685
0.7103834355113746 -3.990048550891411
0.7107170677453392 -3.8236289459567576
0.7107891929101299 -3.632559590738955
0.7107775505902111 -3.4208329328188367
0.7107572845780894 -3.192205416000178
0.7107472986728999 -2.950152080194762
0.7107455166203944 -2.6978518945313894
0.7107456077340607 -2.4381793455643277
0.7107454484743111 -2.1736040872744034
0.7107438817485336 -1.9060832240911403
0.7107399897604156 -1.6369454973937079
0.7107294654329487 -1.3669346170967727
0.7107025686242031 -1.0963841936660534
0.7106503722537023 -0.8254323219627201
0.710584281854049 -0.5541679823568978
0.7105489097776598 -0.28270494123432605
0.7107846182057377 -0.011187161468694603
0.7521262338946729 -0.011399897805358206
0.75228330708435 -0.2827366032685812
0.7522156802826304 -0.5541621635021429
0.7520896610263779 -0.8254146730308158
0.7519429310326514 -1.0963666496860005
0.7517752836617682 -1.366919537689612
0.751553963632239 -1.6369286830571081
0.7512105599256202 -1.9060564269387283
0.7506093395096614 -2.17355515434773
0.7495556338010804 -2.4380886170087024
0.7478953410221167 -2.697700880130732
0.7455203732653019 -2.949923029217353
0.7423606933312894 -3.1918850164968426
0.7383463374200544 -3.4204109576093167
0.7334242320873048 -3.6320348986625905
0.7276064474265631 -3.823021299365684
0.7210299234272902 -3.9894116418265675
0.7140187009085233 -4.1271499504083105
0.7070702365667342 -4.232280544819369
0.7009015125341538 -4.3012545869556185
0.6976042219482063 -4.3315290433252835
0.6943069313622581 -4.301254586955466
0.6881382073296783 -4.232280544819065
0.6811897429878928 -4.127149950407871
0.674178520469132 -3.989411641826026
0.6676019964698664 -3.8230212993650685
0.6617842118091309 -3.6320348986619213
0.6568621064763875 -3.4204109576086137
0.6528477505651595 -3.191885016496127
0.6496880706311539 -2.9499230292166456
0.6473131028743452 -2.6977008801300557
0.6456528100953861 -2.438088617008072
0.6445991043868082 -2.1735551543471545
0.6439978839708512 -1.9060564269382152
0.6436544802642336 -1.6369286830566625
0.6434331602347048 -1.3669195376892394
0.6432655128638218 -1.0963666496856979
0.6431187828700955 -0.8254146730305849
0.6429927636138429 -0.5541621635019817
0.6429251368121234 -0.28273660326849087
0.6430822100018003 -0.011399897805340753
0.8197955820141533 -0.011561730223476526
0.8198999786156684 -0.282766898619638
0.819803634218941 -0.5541513681083999
0.8196204843340771 -0.8253893944095865
0.8193825984064713 -1.0963360406789875
0.8190779194086621 -1.3668843624805365
0.8186488309469804 -1.6368803144492008
0.8179365543303168 -1.9059669540252797
0.8166400071326717 -2.1733662928902957
0.8144201167878244 -2.437727906449987
0.8109962209859686 -2.697113214593992
0.8061739851983654 -2.949072796603986
0.7998068483756765 -3.1907446920953544
0.7917562286576489 -3.418953546109372
0.7818960687726729 -3.6302426046969254
0.7701659026770228 -3.8209006703531636
0.7566561564869788 -3.987011998143849
0.7416722784510547 -4.12457346252199
0.7258015419053779 -4.229687980419701
0.710270450859476 -4.299010367652738
0.6976042219481893 -4.330436376690501
0.6849379930369024 -4.299010367652585
0.669406901991003 -4.2296879804193965
0.6535361654453329 -4.124573462521553