# vtk DataFile Version 3.0
Some data
ASCII
DATASET UNSTRUCTURED_GRID
POINTS 861 float
0.0 0.0 0.0
0.4 0.0 0.0
0.8 0.0 0.0
1.2000000000000002 0.0 0.0
1.6 0.0 0.0
2.0 0.0 0.0
2.4000000000000004 0.0 0.0
2.8000000000000003 0.0 0.0
3.2 0.0 0.0
3.6 0.0 0.0
4.0 0.0 0.0
4.4 0.0 0.0
4.800000000000001 0.0 0.0
5.2 0.0 0.0
5.6000000000000005 0.0 0.0
6.0 0.0 0.0
6.4 0.0 0.0
6.800000000000001 0.0 0.0
7.2 0.0 0.0
7.6000000000000005 0.0 0.0
8.0 0.0 0.0
8.4 0.0 0.0
8.8 0.0 0.0
9.200000000000001 0.0 0.0
9.600000000000001 0.0 0.0
10.0 0.0 0.0
10.4 0.0 0.0
10.8 0.0 0.0
11.200000000000001 0.0 0.0
11.600000000000001 0.0 0.0
12.0 0.0 0.0
12.4 0.0 0.0
12.8 0.0 0.0
13.200000000000001 0.0 0.0
13.600000000000001 0.0 0.0
14.0 0.0 0.0
14.4 0.0 0.0
14.8 0.0 0.0
15.200000000000001 0.0 0.0
15.600000000000001 0.0 0.0
16.0 0.0 0.0
0.0 0.1 0.0
0.4 0.1 0.0
0.8 0.1 0.0
1.2000000000000002 0.1 0.0
1.6 0.1 0.0
2.0 0.1 0.0
2.4000000000000004 0.1 0.0
2.8000000000000003 0.1 0.0
3.2 0.1 0.0
3.6 0.1 0.0
4.0 0.1 0.0
4.4 0.1 0.0
4.800000000000001 0.1 0.0
5.2 0.1 0.0
5.6000000000000005 0.1 0.0
6.0 0.1 0.0
6.4 0.1 0.0
6.800000000000001 0.1 0.0
7.2 0.1 0.0
7.6000000000000005 0.1 0.0
8.0 0.1 0.0
8.4 0.1 0.0
8.8 0.1 0.0
9.200000000000001 0.1 0.0
9.600000000000001 0.1 0.0
10.0 0.1 0.0
10.4 0.1 0.0
10.8 0.1 0.0
11.200000000000001 0.1 0.0
11.600000000000001 0.1 0.0
12.0 0.1 0.0
12.4 0.1 0.0
12.8 0.1 0.0
13.200000000000001 0.1 0.0
13.600000000000001 0.1 0.0
14.0 0.1 0.0
14.4 0.1 0.0
14.8 0.1 0.0
15.200000000000001 0.1 0.0
15.600000000000001 0.1 0.0
16.0 0.1 0.0
0.0 0.2 0.0
0.4 0.2 0.0
0.8 0.2 0.0
1.2000000000000002 0.2 0.0
1.6 0.2 0.0
2.0 0.2 0.0
2.4000000000000004 0.2 0.0
2.8000000000000003 0.2 0.0
3.2 0.2 0.0
3.6 0.2 0.0
4.0 0.2 0.0
4.4 0.2 0.0
4.800000000000001 0.2 0.0
5.2 0.2 0.0
5.6000000000000005 0.2 0.0
6.0 0.2 0.0
6.4 0.2 0.0
6.800000000000001 0.2 0.0
7.2 0.2 0.0
7.6000000000000005 0.2 0.0
8.0 0.2 0.0
8.4 0.2 0.0
8.8 0.2 0.0
9.200000000000001 0.2 0.0
9.600000000000001 0.2 0.0
10.0 0.2 0.0
10.4 0.2 0.0
10.8 0.2 0.0
11.200000000000001 0.2 0.0
11.600000000000001 0.2 0.0
12.0 0.2 0.0
12.4 0.2 0.0
12.8 0.2 0.0
13.200000000000001 0.2 0.0
13.600000000000001 0.2 0.0
14.0 0.2 0.0
14.4 0.2 0.0
14.8 0.2 0.0
15.200000000000001 0.2 0.0
15.600000000000001 0.2 0.0
16.0 0.2 0.0
0.0 0.30000000000000004 0.0
0.4 0.30000000000000004 0.0
0.8 0.30000000000000004 0.0
1.2000000000000002 0.30000000000000004 0.0
1.6 0.30000000000000004 0.0
2.0 0.30000000000000004 0.0
2.4000000000000004 0.30000000000000004 0.0
2.8000000000000003 0.30000000000000004 0.0
3.2 0.30000000000000004 0.0
3.6 0.30000000000000004 0.0
4.0 0.30000000000000004 0.0
4.4 0.30000000000000004 0.0
4.800000000000001 0.30000000000000004 0.0
5.2 0.30000000000000004 0.0
5.6000000000000005 0.30000000000000004 0.0
6.0 0.30000000000000004 0.0
6.4 0.30000000000000004 0.0
6.800000000000001 0.30000000000000004 0.0
7.2 0.30000000000000004 0.0
7.6000000000000005 0.30000000000000004 0.0
8.0 0.30000000000000004 0.0
8.4 0.30000000000000004 0.0
8.8 0.30000000000000004 0.0
9.200000000000001 0.30000000000000004 0.0
9.600000000000001 0.30000000000000004 0.0
10.0 0.30000000000000004 0.0
10.4 0.30000000000000004 0.0
10.8 0.30000000000000004 0.0
11.200000000000001 0.30000000000000004 0.0
11.600000000000001 0.30000000000000004 0.0
12.0 0.30000000000000004 0.0
12.4 0.30000000000000004 0.0
12.8 0.30000000000000004 0.0
13.200000000000001 0.30000000000000004 0.0
13.600000000000001 0.30000000000000004 0.0
14.0 0.30000000000000004 0.0
14.4 0.30000000000000004 0.0
14.8 0.30000000000000004 0.0
15.200000000000001 0.30000000000000004 0.0
15.600000000000001 0.30000000000000004 0.0
16.0 0.30000000000000004 0.0
0.0 0.4 0.0
0.4 0.4 0.0
0.8 0.4 0.0
1.2000000000000002 0.4 0.0
1.6 0.4 0.0
2.0 0.4 0.0
2.4000000000000004 0.4 0.0
2.8000000000000003 0.4 0.0
3.2 0.4 0.0
3.6 0.4 0.0
4.0 0.4 0.0
4.4 0.4 0.0
4.800000000000001 0.4 0.0
5.2 0.4 0.0
5.6000000000000005 0.4 0.0
6.0 0.4 0.0
6.4 0.4 0.0
6.800000000000001 0.4 0.0
7.2 0.4 0.0
7.6000000000000005 0.4 0.0
8.0 0.4 0.0
8.4 0.4 0.0
8.8 0.4 0.0
9.200000000000001 0.4 0.0
9.600000000000001 0.4 0.0
10.0 0.4 0.0
10.4 0.4 0.0
10.8 0.4 0.0
11.200000000000001 0.4 0.0
11.600000000000001 0.4 0.0
12.0 0.4 0.0
12.4 0.4 0.0
12.8 0.4 0.0
13.200000000000001 0.4 0.0
13.600000000000001 0.4 0.0
14.0 0.4 0.0
14.4 0.4 0.0
14.8 0.4 0.0
15.200000000000001 0.4 0.0
15.600000000000001 0.4 0.0
16.0 0.4 0.0
0.0 0.5 0.0
0.4 0.5 0.0
0.8 0.5 0.0
1.2000000000000002 0.5 0.0
1.6 0.5 0.0
2.0 0.5 0.0
2.4000000000000004 0.5 0.0
2.8000000000000003 0.5 0.0
3.2 0.5 0.0
3.6 0.5 0.0
4.0 0.5 0.0
4.4 0.5 0.0
4.800000000000001 0.5 0.0
5.2 0.5 0.0
5.6000000000000005 0.5 0.0
6.0 0.5 0.0
6.4 0.5 0.0
6.800000000000001 0.5 0.0
7.2 0.5 0.0
7.6000000000000005 0.5 0.0
8.0 0.5 0.0
8.4 0.5 0.0
8.8 0.5 0.0
9.200000000000001 0.5 0.0
9.600000000000001 0.5 0.0
10.0 0.5 0.0
10.4 0.5 0.0
10.8 0.5 0.0
11.200000000000001 0.5 0.0
11.600000000000001 0.5 0.0
12.0 0.5 0.0
12.4 0.5 0.0
12.8 0.5 0.0
13.200000000000001 0.5 0.0
13.600000000000001 0.5 0.0
14.0 0.5 0.0
14.4 0.5 0.0
14.8 0.5 0.0
15.200000000000001 0.5 0.0
15.600000000000001 0.5 0.0
16.0 0.5 0.0
0.0 0.6000000000000001 0.0
0.4 0.6000000000000001 0.0
0.8 0.6000000000000001 0.0
1.2000000000000002 0.6000000000000001 0.0
1.6 0.6000000000000001 0.0
2.0 0.6000000000000001 0.0
2.4000000000000004 0.6000000000000001 0.0
2.8000000000000003 0.6000000000000001 0.0
3.2 0.6000000000000001 0.0
3.6 0.6000000000000001 0.0
4.0 0.6000000000000001 0.0
4.4 0.6000000000000001 0.0
4.800000000000001 0.6000000000000001 0.0
5.2 0.6000000000000001 0.0
5.6000000000000005 0.6000000000000001 0.0
6.0 0.6000000000000001 0.0
6.4 0.6000000000000001 0.0
6.800000000000001 0.6000000000000001 0.0
7.2 0.6000000000000001 0.0
7.6000000000000005 0.6000000000000001 0.0
8.0 0.6000000000000001 0.0
8.4 0.6000000000000001 0.0
8.8 0.6000000000000001 0.0
9.200000000000001 0.6000000000000001 0.0
9.600000000000001 0.6000000000000001 0.0
10.0 0.6000000000000001 0.0
10.4 0.6000000000000001 0.0
10.8 0.6000000000000001 0.0
11.200000000000001 0.6000000000000001 0.0
11.600000000000001 0.6000000000000001 0.0
12.0 0.6000000000000001 0.0
12.4 0.6000000000000001 0.0
12.8 0.6000000000000001 0.0
13.200000000000001 0.6000000000000001 0.0
13.600000000000001 0.6000000000000001 0.0
14.0 0.6000000000000001 0.0
14.4 0.6000000000000001 0.0
14.8 0.6000000000000001 0.0
15.200000000000001 0.6000000000000001 0.0
15.600000000000001 0.6000000000000001 0.0
16.0 0.6000000000000001 0.0
0.0 0.7000000000000001 0.0
0.4 0.7000000000000001 0.0
0.8 0.7000000000000001 0.0
1.2000000000000002 0.7000000000000001 0.0
1.6 0.7000000000000001 0.0
2.0 0.7000000000000001 0.0
2.4000000000000004 0.7000000000000001 0.0
2.8000000000000003 0.7000000000000001 0.0
3.2 0.7000000000000001 0.0
3.6 0.7000000000000001 0.0
4.0 0.7000000000000001 0.0
4.4 0.7000000000000001 0.0
4.800000000000001 0.7000000000000001 0.0
5.2 0.7000000000000001 0.0
5.6000000000000005 0.7000000000000001 0.0
6.0 0.7000000000000001 0.0
6.4 0.7000000000000001 0.0
6.800000000000001 0.7000000000000001 0.0
7.2 0.7000000000000001 0.0
7.6000000000000005 0.7000000000000001 0.0
8.0 0.7000000000000001 0.0
8.4 0.7000000000000001 0.0
8.8 0.7000000000000001 0.0
9.200000000000001 0.7000000000000001 0.0
9.600000000000001 0.7000000000000001 0.0
10.0 0.7000000000000001 0.0
10.4 0.7000000000000001 0.0
10.8 0.7000000000000001 0.0
11.200000000000001 0.7000000000000001 0.0
11.600000000000001 0.7000000000000001 0.0
12.0 0.7000000000000001 0.0
12.4 0.7000000000000001 0.0
12.8 0.7000000000000001 0.0
13.200000000000001 0.7000000000000001 0.0
13.600000000000001 0.7000000000000001 0.0
14.0 0.7000000000000001 0.0
14.4 0.7000000000000001 0.0
14.8 0.7000000000000001 0.0
15.200000000000001 0.7000000000000001 0.0
15.600000000000001 0.7000000000000001 0.0
16.0 0.7000000000000001 0.0
0.0 0.8 0.0
0.4 0.8 0.0
0.8 0.8 0.0
1.2000000000000002 0.8 0.0
1.6 0.8 0.0
2.0 0.8 0.0
2.4000000000000004 0.8 0.0
2.8000000000000003 0.8 0.0
3.2 0.8 0.0
3.6 0.8 0.0
4.0 0.8 0.0
4.4 0.8 0.0
4.800000000000001 0.8 0.0
5.2 0.8 0.0
5.6000000000000005 0.8 0.0
6.0 0.8 0.0
6.4 0.8 0.0
6.800000000000001 0.8 0.0
7.2 0.8 0.0
7.6000000000000005 0.8 0.0
8.0 0.8 0.0
8.4 0.8 0.0
8.8 0.8 0.0
9.200000000000001 0.8 0.0
9.600000000000001 0.8 0.0
10.0 0.8 0.0
10.4 0.8 0.0
10.8 0.8 0.0
11.200000000000001 0.8 0.0
11.600000000000001 0.8 0.0
12.0 0.8 0.0
12.4 0.8 0.0
12.8 0.8 0.0
13.200000000000001 0.8 0.0
13.600000000000001 0.8 0.0
14.0 0.8 0.0
14.4 0.8 0.0
14.8 0.8 0.0
15.200000000000001 0.8 0.0
15.600000000000001 0.8 0.0
16.0 0.8 0.0
0.0 0.9 0.0
0.4 0.9 0.0
0.8 0.9 0.0
1.2000000000000002 0.9 0.0
1.6 0.9 0.0
2.0 0.9 0.0
2.4000000000000004 0.9 0.0
2.8000000000000003 0.9 0.0
3.2 0.9 0.0
3.6 0.9 0.0
4.0 0.9 0.0
4.4 0.9 0.0
4.800000000000001 0.9 0.0
5.2 0.9 0.0
5.6000000000000005 0.9 0.0
6.0 0.9 0.0
6.4 0.9 0.0
6.800000000000001 0.9 0.0
7.2 0.9 0.0
7.6000000000000005 0.9 0.0
8.0 0.9 0.0
8.4 0.9 0.0
8.8 0.9 0.0
9.200000000000001 0.9 0.0
9.600000000000001 0.9 0.0
10.0 0.9 0.0
10.4 0.9 0.0
10.8 0.9 0.0
11.200000000000001 0.9 0.0
11.600000000000001 0.9 0.0
12.0 0.9 0.0
12.4 0.9 0.0
12.8 0.9 0.0
13.200000000000001 0.9 0.0
13.600000000000001 0.9 0.0
14.0 0.9 0.0
14.4 0.9 0.0
14.8 0.9 0.0
15.200000000000001 0.9 0.0
15.600000000000001 0.9 0.0
16.0 0.9 0.0
0.0 1.0 0.0
0.4 1.0 0.0
0.8 1.0 0.0
1.2000000000000002 1.0 0.0
1.6 1.0 0.0
2.0 1.0 0.0
2.4000000000000004 1.0 0.0
2.8000000000000003 1.0 0.0
3.2 1.0 0.0
3.6 1.0 0.0
4.0 1.0 0.0
4.4 1.0 0.0
4.800000000000001 1.0 0.0
5.2 1.0 0.0
5.6000000000000005 1.0 0.0
6.0 1.0 0.0
6.4 1.0 0.0
6.800000000000001 1.0 0.0
7.2 1.0 0.0
7.6000000000000005 1.0 0.0
8.0 1.0 0.0
8.4 1.0 0.0
8.8 1.0 0.0
9.200000000000001 1.0 0.0
9.600000000000001 1.0 0.0
10.0 1.0 0.0
10.4 1.0 0.0
10.8 1.0 0.0
11.200000000000001 1.0 0.0
11.600000000000001 1.0 0.0
12.0 1.0 0.0
12.4 1.0 0.0
12.8 1.0 0.0
13.200000000000001 1.0 0.0
13.600000000000001 1.0 0.0
14.0 1.0 0.0
14.4 1.0 0.0
14.8 1.0 0.0
15.200000000000001 1.0 0.0
15.600000000000001 1.0 0.0
16.0 1.0 0.0
0.0 1.1 0.0
0.4 1.1 0.0
0.8 1.1 0.0
1.2000000000000002 1.1 0.0
1.6 1.1 0.0
[...]
POINT_DATA 861
SCALARS Disp float 2
LOOKUP_TABLE default
0.0 0.0
0.0037907436285858154 -0.11116742191432472
0.004737175210313159 -0.21587036496363482
0.005439611981866319 -0.31998727587553116
0.006270890713929566 -0.4238196215125781
0.007389310381585032 -0.5271830829672249
0.009051648425538367 -0.6298437079680813
0.011483852561118947 -0.7315490058727371
0.014931646643663466 -0.8319869651489117
0.01966002758414006 -0.930749696821619
0.025958653466815695 -1.0272881914644367
0.03418350163305213 -1.1208696789757568
0.04479474337505601 -1.210553932875746
0.058345717333139334 -1.2952085200440429
0.07547087221624393 -1.3735305002631277
0.09680337852837323 -1.4440643131211286
0.12283130436917934 -1.5052221318333787
0.1537188161354853 -1.5553256344985735
0.18914947116200806 -1.5927255845361297
0.2282588625987244 -1.6160215276840233
0.26961342946338024 -1.6242781271959048
0.3109679963280349 -1.6160215276839862
0.35007738776474634 -1.5927255845360537
0.3855080427912605 -1.555325634498463
0.41639555455755517 -1.5052221318332404
0.4424234803983496 -1.4440643131209718
0.46375598671046747 -1.3735305002629548
0.4808811415935601 -1.2952085200438592
0.4944321155516307 -1.2105539328755568
0.505043357293622 -1.120869678975568
0.5132682054598473 -1.0272881914642533
0.519566831342513 -0.9307496968214447
0.524295212282982 -0.8319869651487489
0.5277430063655203 -0.7315490058725886
0.5301752105010961 -0.6298437079679488
0.5318375485450464 -0.5271830829671111
0.5329559682127003 -0.42381962151248354
0.5337872469447631 -0.31998727587545733
0.534489683716316 -0.21587036496358109
0.5354361152980426 -0.11116742191429273
0.539226858926626 0.0
0.027750117050950367 -0.001703353343485394
0.030265552806851025 -0.11126004856760754
0.030790820789055463 -0.21593714346652107
0.0314278787033402 -0.32006328584511506
0.032173317267355186 -0.4239153126800729
0.03315035035958532 -0.5273502317716482
0.034606789012653176 -0.6301406275786886
0.036761651848647776 -0.7320305892042389
0.03984247253316946 -0.8327142886992192
0.044083607640865 -0.931785703645056
0.04973864996264067 -1.028704875864559
0.05711447915300619 -1.1227603286884005
0.06661258095815215 -1.2130394339581703
0.07874568766050573 -1.2984335792319952
0.09410106414914292 -1.3776540071879086
0.11327334091446915 -1.4492310215935007
0.13672410148369085 -1.5115213547248718
0.16461870436220694 -1.5627492488857764
0.19669074719127316 -1.6011391803554864
0.23215612167809907 -1.6251555918915117
0.26961342946337563 -1.6336941571679742
0.30707073724865114 -1.625155591891474
0.3425361117354726 -1.601139180355409
0.3746081545645314 -1.5627492488856638
0.4025027574430379 -1.511521354724731
0.4259535180122493 -1.4492310215933413
0.44512579477756514 -1.3776540071877335
0.46048117126619154 -1.298433579231809
0.47261427796853384 -1.2130394339579784
0.4821123797736686 -1.122760328688209
0.4894882089640239 -1.028704875864373
0.49514325128579073 -0.9317857036448799
0.49938438639347926 -0.832714288699055
0.5024652070779952 -0.7320305892040893
0.5046200699139856 -0.6301406275785552
0.5060765085670508 -0.5273502317715341
0.5070535416592797 -0.4239153126799782
0.5077989802232943 -0.32006328584504123
0.5084360381375789 -0.21593714346646734
0.5089613061197834 -0.11126004856757543
0.5114767418756805 -0.001703353343483412
0.05478019616324879 -0.0030277846978477743
0.05656605905199828 -0.1112978135365013
0.05687113784357037 -0.21597822055736202
0.05739171821226712 -0.3201334383438467
0.0580574531505645 -0.4239974704949314
0.05890869971657728 -0.5274845491784842
0.06015656223674643 -0.6303869013874759
0.06203191676850692 -0.7324410793417883
0.0647397130076424 -0.8333446463733237
0.06848758304166273 -0.932691614890369
0.07349408515403465 -1.0299490784846945
0.08002197020813671 -1.124422789954976
0.08841659539009661 -1.2152270403214198
0.09913191124095055 -1.3012804951966892
0.11271300639765543 -1.381307410148618
0.12970719866271244 -1.4538263710660275
0.15055106910254784 -1.5171448669994656
0.1754262675135555 -1.5694003402247647
0.2041270031381054 -1.6087023787443007
0.23594371386423119 -1.6333758505400646
0.26961342946337147 -1.642177453900099
0.30328314506251064 -1.6333758505400264
0.33509985578863255 -1.6087023787442218
0.3638005914131758 -1.5694003402246501
0.3886757898241752 -1.5171448669993228
0.40951966026400155 -1.4538263710658657
0.42651385252904916 -1.3813074101484404
0.4400949476857445 -1.3012804951965005
0.45081026353658854 -1.2152270403212255
0.4592048887185386 -1.124422789954782
0.4657327737726314 -1.0299490784845065
0.4707392758849956 -0.9326916148901913
0.4744871459190095 -0.8333446463731582
0.4771949421581399 -0.7324410793416376
0.4790702966898966 -0.6303869013873418
0.4803181592100635 -0.5274845491783698
0.4811694057760754 -0.42399747049483666
0.4818351407143725 -0.32013343834377295
0.4823557210830692 -0.21597822055730834
0.48266079987464144 -0.11129781353646898
0.4844466627633875 -0.003027784697843781
0.08143461951164864 -0.004081639881025006
0.08274893603767319 -0.11132404442812212
0.08293453094760456 -0.21600093958809422
0.08334004362541733 -0.32019158772256434
0.08391730001098933 -0.42407061771629734
0.08465997512879894 -0.5275911430982344
0.08570856098272572 -0.630582649672599
0.08730109986226504 -0.7327815529792455
0.08963238748567995 -0.8338780515328
0.09288285945062644 -0.9334676251220363
0.09723894440965582 -1.0310213634942442
0.10292033897820473 -1.125859815134729
0.11021980048301849 -1.2171207929522545
0.11953075922112615 -1.3037506783760033
0.13133616251307678 -1.3844897982780793
0.1461421188771591 -1.4578464735814327
0.16436049550247953 -1.5220869560887127
0.18619095624516044 -1.575274275198092
0.21149434877915424 -1.615411654451843
0.23966999118980417 -1.6406941223668468
0.2696134294633676 -1.649756635037219
0.29955686773692985 -1.6406941223668081
0.3277325101475762 -1.615411654451763
0.35303590268156415 -1.575274275197976
0.3748663634242379 -1.5220869560885684
0.3930847400495505 -1.457846473581269
0.4078906964136243 -1.3844897982778999
0.41969609970556665 -1.3037506783758126
0.42900705844366577 -1.2171207929520582
0.4363065199484709 -1.1258598151345331
0.4419879145170117 -1.0310213634940546
0.44634399947603426 -0.9334676251218569
0.4495944714409751 -0.8338780515326334
0.45192575906438553 -0.732781552979094
0.4535182979439216 -0.6305826496724644
0.45456688379784665 -0.5275911430981198
0.45530955891565567 -0.4240706177162025
0.4558868153012273 -0.3201915877224905
0.45629232797904007 -0.2160009395880406
0.4564779228889716 -0.11132404442808957
0.45779223941499314 -0.004081639881019219
0.10786960036845197 -0.004924393263297014
0.1088459136751934 -0.111350748434052
0.10896533382605506 -0.2160130623944865
0.10927113225656435 -0.320236338290008
0.10975386447097803 -0.42413468741597343
0.11039317505420923 -0.5276788089541935
0.11126813077583744 -0.6307321750886411
0.11257645350967253 -0.7330527508221711
0.11452984755478701 -0.8343157885722927
0.11728113067655402 -0.9341146749113566
0.12098643025990514 -1.031923644820388
0.12582607631876036 -1.1270739941458106
0.13203933664713322 -1.2187248364932481
0.13995747198461161 -1.305848675529992
0.1500027162369956 -1.3872023956415385
0.16262076616706952 -1.461289788033437
0.1782003071738889 -1.526343762642607
0.19696270921007014 -1.5803651064335331
0.21884091296432173 -1.6212635665529191
0.2433684263897792 -1.6471176331860393
0.2696134294633638 -1.656447626724175
0.2958584325369474 -1.647117633186
0.3203859459624014 -1.621263566552838
0.34226414971664787 -1.5803651064334157
0.361026551752823 -1.5263437626424612
0.3766060927596354 -1.4612897880332716
0.3892241426897021 -1.3872023956413573
0.3992693869420789 -1.3058486755297996
0.4071875222795499 -1.21872483649305
0.4134007826079155 -1.127073994145613
0.41824042866676375 -1.0319236448201965
0.4219457282501091 -0.934114674911176
0.42469701137187116 -0.8343157885721249
0.4266504054169818 -0.7330527508220188
0.42795872815081426 -0.630732175088506
0.42883368387244125 -0.5276788089540788
0.429472994455672 -0.42413468741587856
0.42995572667008536 -0.32023633828993414
0.4302615251005946 -0.2160130623944329
0.4303809452514563 -0.11135074843401928
0.4313572585581953 -0.004924393263289694
0.13415851116623986 -0.005594483232112264
0.13488117276946948 -0.11138061269852549
0.13496069227815416 -0.21601987404998843
0.13518254356908924 -0.3202685821439129
0.13556887498385115 -0.424188411305255
0.1361042516625603 -0.5277516293950926
0.13682504344089677 -0.6308452831251479
0.1378728613388508 -0.7332557580912848
0.1394424710026051 -0.8346597344414097
0.1416947926422243 -0.934634927751438
0.14475115908213315 -1.0326581663613168
0.14875430287470087 -1.128069151008104
0.15389348511225784 -1.2200441323257676
0.1604370184270618 -1.3075795750995691
0.16873498260644623 -1.3894503153457844
0.17918077072077515 -1.4641583090299597
0.19212465169740145 -1.5299129554530246
0.20779645714089015 -1.5846669068796355
0.22621548182427806 -1.6262528366446
0.24706902304709194 -1.6526474652861836
0.26961342946336003 -1.6622583607763184
0.2921578358796271 -1.6526474652861434
0.3130113771024378 -1.626252836644518
0.3314304017858213 -1.5846669068795167
0.34710220722930485 -1.5299129554528772
0.36004608820592515 -1.4641583090297927
0.37049187632024794 -1.389450315345602
0.3787898404996264 -1.307579575099375
0.38533337381442423 -1.220044132325568
0.39047255605197523 -1.128069151007905
0.39447569984453706 -1.032658166361124
0.39753206628444115 -0.9346349277512561
0.39978438792405624 -0.834659734441241
0.4013539975878073 -0.7332557580911321
0.40240181548575943 -0.6308452831250124
0.40312260726409505 -0.5277516293949779
0.40365798394280383 -0.42418841130516005
0.40404431535756546 -0.32026858214383896
0.40426616664850057 -0.21601987404993486
0.4043456861571852 -0.11138061269849263
0.40506834776041284 -0.005594483232103665
0.16034155334672565 -0.006122138612387903
0.16087203463713587 -0.11141346588507343
0.16092345682450027 -0.21602414811642853
0.16107330045854387 -0.32028989624973486
0.16136491545366657 -0.42423052537015205
0.1617919687772174 -0.5278119603860226
0.16236783026516355 -0.6309316960944085
0.16318317316951148 -0.7334011438814354
0.1643878228909957 -0.8349117668722668
0.16613769138266926 -0.93503141320797
0.16854926462017136 -1.0332286708866596
0.17172289294414086 -1.128849827770072
0.17580099303451388 -1.2210847571492571
0.18098912652459723 -1.3089507815548331
0.18756725525090645 -1.391239602022602
0.19585805394301908 -1.466457396666327
0.2061763353479845 -1.532796236518014
0.2187529449723251 -1.5881747554387802
0.23367514953767202 -1.6303711535840808
0.2508037168092486 -1.657277975966732
0.2696134294633561 -1.6671897357834589
0.28842314211746267 -1.6572779759666914
0.30555170938903653 -1.6303711535839978
0.3204739139543798 -1.5881747554386605
0.333050523578716 -1.5327962365178656
0.34336880498367656 -1.4664573966661587
0.3516596036757841 -1.3912396020224185
0.3582377324020886 -1.3089507815546377
0.3634258658921672 -1.2210847571490562
0.3675039659825355 -1.128849827769872
0.3706775943065004 -1.033228670886466
0.37308916754399846 -0.9350314132077874
0.37483903603566887 -0.8349117668720973
0.37604368575715064 -0.7334011438812823
0.37685902866149723 -0.630931696094273
0.3774348901494428 -0.5278119603859078
0.37786194347299334 -0.42423052537005707
0.3781535584681158 -0.32028989624966087
0.3783034021021594 -0.21602414811637494
0.37835482428952366 -0.1114134658850405
0.3788853055799325 -0.006122138612378266
0.18644658758732444 -0.006530826143396425
0.18683003288998054 -0.11144978748889381
0.18685851885279775 -0.21602663322622867
0.1869442135390159 -0.32030175774010183
0.18714434479087827 -0.4242606361670241
0.18745926345930777 -0.5278592787571492
0.18789494699109924 -0.6309959794204212
0.1884964488116391 -0.7335016449384624
0.18936780001501746 -0.8350816374347657
0.19063117549441694 -0.9353082782729818
0.19239909573102268 -1.0336401788638054
0.19475072974952912 -1.1294220473730658
0.19778224767926655 -1.221854295461645
0.20163806518255195 -1.3099713862654776
0.2065245219205505 -1.3925805390883346
0.21269292220492841 -1.4681947440190635
0.22040529877857143 -1.5349978575752856
0.2298841688044439 -1.5908873940859518
0.24127785007769836 -1.6336083519037634
0.2546097254800057 -1.6609959495675994
0.26961342946335193 -1.6712350806389946
0.2846171334466976 -1.6609959495675584
0.2979490088490028 -1.6336083519036797
0.3093426901222542 -1.5908873940858312
0.3188215601481232 -1.5349978575751362
0.32653393672176234 -1.468194744018894
0.3327023370061364 -1.3925805390881498
0.33758879374413153 -1.3099713862652813
0.3414446112474135 -1.2218542954614433
0.34447612917714754 -1.1294220473728644
0.3468277631956504 -1.033640178863611
0.34859568343225317 -0.9353082782727984
0.3498590589116505 -0.8350816374345958
0.35073041011502715 -0.7335016449383089
0.3513319119355662 -0.6309959794202858
0.35176759546735725 -0.5278592787570345
0.3520825141357865 -0.4242606361669291
0.35228264538764875 -0.3203017577400279
0.35236834007386686 -0.21602663322617505
0.35239682603668393 -0.11144978748886085
0.35278027133933915 -0.006530826143386007
0.2124889115281825 -0.006844170993482886
0.21276575371507744 -0.11148944001885672
0.21277015450185074 -0.21602710708166314
0.21279770627372194 -0.3203053260521167
0.21290984336755456 -0.4242789339316639
0.21311080198197527 -0.5278920721914758
0.2134005708314077 -0.6310427025432663
0.21380310977594738 -0.7335677148888644
0.21437239926764287 -0.8351850463504391
0.2151832597275803 -0.935477363464467
0.21632377258394797 -1.033900407051064
0.21786315595608982 -1.1297946479723486
0.2198610182911305 -1.2223630669637018
0.22240785154684747 -1.3106537416965276
0.2256365964040655 -1.3934865319032192
0.22972069426624667 -1.4693828886361624
0.23485656443636765 -1.5365266693596609
0.24125264151734996 -1.5928066493683115
0.2490892841353377 -1.635954376107018
0.2585307130984714 -1.6637812640008751
0.26961342946334754 -1.6743802307357545
0.2806961458282234 -1.6637812640008336
0.2901375747913556 -1.635954376106934
0.29797421740934116 -1.5928066493681903
0.30437029449032077 -1.5365266693595112
0.3095061646604394 -1.4693828886359923
0.31359026252261785 -1.3934865319030338
0.31681900737983376 -1.3106537416963309
0.3193658406355486 -1.2223630669634995
0.3213637029705871 -1.129794647972147
0.32290308634272674 -1.033900407050869
0.3240435991990925 -0.9354773634642832
0.3248544596590287 -0.8351850463502689
0.3254237491507232 -0.7335677148887108
0.3258262880952623 -0.6310427025431309
0.32611605694469453 -0.5278920721913609
0.32631701555911513 -0.4242789339315689
0.3264291526529477 -0.3203053260520427
0.32645670442481883 -0.21602710708160952
0.32646110521159205 -0.11148944001882377
0.3267379473984864 -0.0068441709934719186
0.23847850165867301 -0.007087857288661545
0.23868183473965135 -0.11153155212669336
0.23866329372414483 -0.2160251168690197
0.23863701736129006 -0.3203015094165824
0.23866460945425017 -0.4242856514096752
0.23875129253053687 -0.5279098141299692
0.2388921864785634 -0.631070476948956
0.23909346034989976 -0.7336071092763258
0.2393764001414006 -0.835241681317264
0.2397792995397941 -0.9355614964598382
0.2403320921367168 -1.0340283456505994
0.2410846276661274 -1.1299839174427084
0.24206578330994483 -1.2226277374763972
0.24332340091900176 -1.3110167513164825
0.2449270418007387 -1.3939784985418116
0.24696594037449987 -1.470042495567845
0.24956172543483238 -1.5373986214467517
0.25288687860921655 -1.593943789725189
0.2571699280200221 -1.637406085465638
0.26263447915723614 -1.6656072146149756
0.269613429463343 -1.6765998216620148
0.27659237976944995 -1.6656072146149339
0.2820569309066632 -1.6374060854655537
0.2863399803174672 -1.5939437897250675
0.28966513349184986 -1.5373986214466016
0.2922609185521812 -1.4700424955676745
0.2942998171259412 -1.3939784985416257
0.2959034580076772 -1.3110167513162858
0.2971610756167335 -1.2226277374761947
0.2981422312605499 -1.1299839174425066
0.2988947667899596 -1.034028345650404
0.2994475593868816 -0.9355614964596541
0.2998504587852746 -0.8352416813170938
0.30013339857677507 -0.7336071092761721
0.30033467244811124 -0.6310704769488205
0.3004755663961377 -0.5279098141298543
0.3005622494724243 -0.4242856514095803
0.30058984156538454 -0.3203015094165084
0.30056356520252975 -0.21602511686896603
0.3005450241870232 -0.11153155212666042
0.30074835726800125 -0.007087857288650217
0.26442950609927307 -0.007280301503661916
0.2645818270766973 -0.1115741059741083
0.2645422357151708 -0.21602065066239357
0.26446605464200945 -0.32029089140595157
0.2644123576299413 -0.4242811603427928
0.26438576342181846 -0.5279123486569789
0.2643760862996309 -0.6310787354402528
0.26437395503322336 -0.7336201551793816
0.26437406315201945 -0.8352602181542262
0.2643745267906787 -0.9355883226643894
0.2643748785566775 -1.0340656524640444
0.2643750397618012 -1.1300357343499143
0.26437448584225 -1.222697319285811
0.2643716803799046 -1.3111113269165589
0.2643666009725623 -1.394107869166722
0.264369887043461 -1.4702209520174925
0.2644315013838301 -1.5376564629946041
0.2646937486430488 -1.5943334989774534
0.2654249380787577 -1.6379960477951354
0.2669509442331101 -1.6664643281749738
0.26961342946333827 -1.6778651335342905
0.27227591469356677 -1.666464328174932
0.2738019208479188 -1.6379960477950508
0.2745331102836272 -1.5943334989773315
0.2747953575428459 -1.537656462994454
0.27485697188321534 -1.4702209520173217
0.2748602579541143 -1.3941078691665358
0.2748551785467722 -1.3111113269163621
0.27485237308442745 -1.2226973192856083
0.27485181916487667 -1.1300357343497123
0.2748519803700008 -1.0340656524638492
0.274852332136 -0.9355883226642053
0.2748527957746596 -0.835260218154056
0.27485290389345574 -0.733620155179228
0.27485077262704827 -0.6310787354401173
0.27484109550486086 -0.527912348656864
0.27481450129673807 -0.4242811603426979
0.2747608042846701 -0.3202908914058775
0.2746846232115087 -0.21602065066233986
0.2746450318499823 -0.11157410597407535
0.27479735282740636 -0.007280301503650366
0.29035586352807025 -0.007432692419345677
0.2904705160459192 -0.11161469835872685
0.290411493504752 -0.21601384516558772
0.29028891459636713 -0.32027392254115716
0.29015716306767764 -0.42426594073095597
0.2900193904640379 -0.527899789310275
0.2898601306072152 -0.6310673397412306
0.289654437171442 -0.7336065765542099
0.289371784152972 -0.8352418665767992
0.2889697920109868 -0.9355616447881627
0.2884176873162188 -1.0340284335338452
0.2876655148749804 -1.1299838207836628
0.28668332086140225 -1.2226270682590032
0.28542033992195437 -1.3110150811868935
0.28380605515459006 -1.3939771183403775
0.2817723315964352 -1.470050897687676
0.27929289427556997 -1.537455464201109
0.27644836159647607 -1.5941328651464302
0.2734956616282532 -1.6378685636718218
0.2708969387862189 -1.666457532382143
0.26961342946333383 -1.6782872328337226
0.26832992014044854 -1.6664575323821014
0.2657311972984141 -1.6378685636717372
0.2627784973301919 -1.5941328651463085
0.2599339646510996 -1.5374554642009586
0.2574545273302362 -1.4700508976875057
0.25542080377208315 -1.3939771183401917
0.25380651900472023 -1.3110150811866967
0.25254353806527424 -1.222627068258801
0.2515613440516981 -1.129983820783461
0.2508091716104614 -1.03402843353365
0.25025706691569494 -0.9355616447879789
0.24985507477371083 -0.835241866576629
0.24957242175524136 -0.7336065765540561
0.24936672831946857 -0.6310673397410952
0.24920746846264616 -0.5278997893101602
0.24906969585900665 -0.4242659407308611
0.2489379443303173 -0.3202739225410831
0.24881536542193258 -0.21601384516553399
0.2487563428807654 -0.11161469835869392
0.2488709953986143 -0.007432692419333949
0.3162709445458845 -0.007550551614595584
0.3163533577126936 -0.11165162559586565
0.31627588680015595 -0.2160046288102858
0.3161098821666195 -0.32025103725782134
0.31590342067394694 -0.4242405535088912
0.3156574236051431 -0.5278725102989551
0.31535091268668336 -0.6310365486531156
0.3149449836691903 -0.7335667144390384
0.3143758430264331 -0.835185400917483
0.3135659747599631 -0.9354776857492846
0.31242609276305705 -1.0339005838933513
0.310886906601255 -1.1297944643831466
0.3088884612862522 -1.222361724620344