# vtk DataFile Version 3.0
Some data
ASCII
DATASET UNSTRUCTURED_GRID
POINTS 861 float
0.0 0.0 0.0
0.4 0.0 0.0
0.8 0.0 0.0
1.2000000000000002 0.0 0.0
1.6 0.0 0.0
2.0 0.0 0.0
2.4000000000000004 0.0 0.0
2.8000000000000003 0.0 0.0
3.2 0.0 0.0
3.6 0.0 0.0
4.0 0.0 0.0
4.4 0.0 0.0
4.800000000000001 0.0 0.0
5.2 0.0 0.0
5.6000000000000005 0.0 0.0
6.0 0.0 0.0
6.4 0.0 0.0
6.800000000000001 0.0 0.0
7.2 0.0 0.0
7.6000000000000005 0.0 0.0
8.0 0.0 0.0
8.4 0.0 0.0
8.8 0.0 0.0
9.200000000000001 0.0 0.0
9.600000000000001 0.0 0.0
10.0 0.0 0.0
10.4 0.0 0.0
10.8 0.0 0.0
11.200000000000001 0.0 0.0
11.600000000000001 0.0 0.0
12.0 0.0 0.0
12.4 0.0 0.0
12.8 0.0 0.0
13.200000000000001 0.0 0.0
13.600000000000001 0.0 0.0
14.0 0.0 0.0
14.4 0.0 0.0
14.8 0.0 0.0
15.200000000000001 0.0 0.0
15.600000000000001 0.0 0.0
16.0 0.0 0.0
0.0 0.1 0.0
0.4 0.1 0.0
0.8 0.1 0.0
1.2000000000000002 0.1 0.0
1.6 0.1 0.0
2.0 0.1 0.0
2.4000000000000004 0.1 0.0
2.8000000000000003 0.1 0.0
3.2 0.1 0.0
3.6 0.1 0.0
4.0 0.1 0.0
4.4 0.1 0.0
4.800000000000001 0.1 0.0
5.2 0.1 0.0
5.6000000000000005 0.1 0.0
6.0 0.1 0.0
6.4 0.1 0.0
6.800000000000001 0.1 0.0
7.2 0.1 0.0
7.6000000000000005 0.1 0.0
8.0 0.1 0.0
8.4 0.1 0.0
8.8 0.1 0.0
9.200000000000001 0.1 0.0
9.600000000000001 0.1 0.0
10.0 0.1 0.0
10.4 0.1 0.0
10.8 0.1 0.0
11.200000000000001 0.1 0.0
11.600000000000001 0.1 0.0
12.0 0.1 0.0
12.4 0.1 0.0
12.8 0.1 0.0
13.200000000000001 0.1 0.0
13.600000000000001 0.1 0.0
14.0 0.1 0.0
14.4 0.1 0.0
14.8 0.1 0.0
15.200000000000001 0.1 0.0
15.600000000000001 0.1 0.0
16.0 0.1 0.0
0.0 0.2 0.0
0.4 0.2 0.0
0.8 0.2 0.0
1.2000000000000002 0.2 0.0
1.6 0.2 0.0
2.0 0.2 0.0
2.4000000000000004 0.2 0.0
2.8000000000000003 0.2 0.0
3.2 0.2 0.0
3.6 0.2 0.0
4.0 0.2 0.0
4.4 0.2 0.0
4.800000000000001 0.2 0.0
5.2 0.2 0.0
5.6000000000000005 0.2 0.0
6.0 0.2 0.0
6.4 0.2 0.0
6.800000000000001 0.2 0.0
7.2 0.2 0.0
7.6000000000000005 0.2 0.0
8.0 0.2 0.0
8.4 0.2 0.0
8.8 0.2 0.0
9.200000000000001 0.2 0.0
9.600000000000001 0.2 0.0
10.0 0.2 0.0
10.4 0.2 0.0
10.8 0.2 0.0
11.200000000000001 0.2 0.0
11.600000000000001 0.2 0.0
12.0 0.2 0.0
12.4 0.2 0.0
12.8 0.2 0.0
13.200000000000001 0.2 0.0
13.600000000000001 0.2 0.0
14.0 0.2 0.0
14.4 0.2 0.0
14.8 0.2 0.0
15.200000000000001 0.2 0.0
15.600000000000001 0.2 0.0
16.0 0.2 0.0
0.0 0.30000000000000004 0.0
0.4 0.30000000000000004 0.0
0.8 0.30000000000000004 0.0
1.2000000000000002 0.30000000000000004 0.0
1.6 0.30000000000000004 0.0
2.0 0.30000000000000004 0.0
2.4000000000000004 0.30000000000000004 0.0
2.8000000000000003 0.30000000000000004 0.0
3.2 0.30000000000000004 0.0
3.6 0.30000000000000004 0.0
4.0 0.30000000000000004 0.0
4.4 0.30000000000000004 0.0
4.800000000000001 0.30000000000000004 0.0
5.2 0.30000000000000004 0.0
5.6000000000000005 0.30000000000000004 0.0
6.0 0.30000000000000004 0.0
6.4 0.30000000000000004 0.0
6.800000000000001 0.30000000000000004 0.0
7.2 0.30000000000000004 0.0
7.6000000000000005 0.30000000000000004 0.0
8.0 0.30000000000000004 0.0
8.4 0.30000000000000004 0.0
8.8 0.30000000000000004 0.0
9.200000000000001 0.30000000000000004 0.0
9.600000000000001 0.30000000000000004 0.0
10.0 0.30000000000000004 0.0
10.4 0.30000000000000004 0.0
10.8 0.30000000000000004 0.0
11.200000000000001 0.30000000000000004 0.0
11.600000000000001 0.30000000000000004 0.0
12.0 0.30000000000000004 0.0
12.4 0.30000000000000004 0.0
12.8 0.30000000000000004 0.0
13.200000000000001 0.30000000000000004 0.0
13.600000000000001 0.30000000000000004 0.0
14.0 0.30000000000000004 0.0
14.4 0.30000000000000004 0.0
14.8 0.30000000000000004 0.0
15.200000000000001 0.30000000000000004 0.0
15.600000000000001 0.30000000000000004 0.0
16.0 0.30000000000000004 0.0
0.0 0.4 0.0
0.4 0.4 0.0
0.8 0.4 0.0
1.2000000000000002 0.4 0.0
1.6 0.4 0.0
2.0 0.4 0.0
2.4000000000000004 0.4 0.0
2.8000000000000003 0.4 0.0
3.2 0.4 0.0
3.6 0.4 0.0
4.0 0.4 0.0
4.4 0.4 0.0
4.800000000000001 0.4 0.0
5.2 0.4 0.0
5.6000000000000005 0.4 0.0
6.0 0.4 0.0
6.4 0.4 0.0
6.800000000000001 0.4 0.0
7.2 0.4 0.0
7.6000000000000005 0.4 0.0
8.0 0.4 0.0
8.4 0.4 0.0
8.8 0.4 0.0
9.200000000000001 0.4 0.0
9.600000000000001 0.4 0.0
10.0 0.4 0.0
10.4 0.4 0.0
10.8 0.4 0.0
11.200000000000001 0.4 0.0
11.600000000000001 0.4 0.0
12.0 0.4 0.0
12.4 0.4 0.0
12.8 0.4 0.0
13.200000000000001 0.4 0.0
13.600000000000001 0.4 0.0
14.0 0.4 0.0
14.4 0.4 0.0
14.8 0.4 0.0
15.200000000000001 0.4 0.0
15.600000000000001 0.4 0.0
16.0 0.4 0.0
0.0 0.5 0.0
0.4 0.5 0.0
0.8 0.5 0.0
1.2000000000000002 0.5 0.0
1.6 0.5 0.0
2.0 0.5 0.0
2.4000000000000004 0.5 0.0
2.8000000000000003 0.5 0.0
3.2 0.5 0.0
3.6 0.5 0.0
4.0 0.5 0.0
4.4 0.5 0.0
4.800000000000001 0.5 0.0
5.2 0.5 0.0
5.6000000000000005 0.5 0.0
6.0 0.5 0.0
6.4 0.5 0.0
6.800000000000001 0.5 0.0
7.2 0.5 0.0
7.6000000000000005 0.5 0.0
8.0 0.5 0.0
8.4 0.5 0.0
8.8 0.5 0.0
9.200000000000001 0.5 0.0
9.600000000000001 0.5 0.0
10.0 0.5 0.0
10.4 0.5 0.0
10.8 0.5 0.0
11.200000000000001 0.5 0.0
11.600000000000001 0.5 0.0
12.0 0.5 0.0
12.4 0.5 0.0
12.8 0.5 0.0
13.200000000000001 0.5 0.0
13.600000000000001 0.5 0.0
14.0 0.5 0.0
14.4 0.5 0.0
14.8 0.5 0.0
15.200000000000001 0.5 0.0
15.600000000000001 0.5 0.0
16.0 0.5 0.0
0.0 0.6000000000000001 0.0
0.4 0.6000000000000001 0.0
0.8 0.6000000000000001 0.0
1.2000000000000002 0.6000000000000001 0.0
1.6 0.6000000000000001 0.0
2.0 0.6000000000000001 0.0
2.4000000000000004 0.6000000000000001 0.0
2.8000000000000003 0.6000000000000001 0.0
3.2 0.6000000000000001 0.0
3.6 0.6000000000000001 0.0
4.0 0.6000000000000001 0.0
4.4 0.6000000000000001 0.0
4.800000000000001 0.6000000000000001 0.0
5.2 0.6000000000000001 0.0
5.6000000000000005 0.6000000000000001 0.0
6.0 0.6000000000000001 0.0
6.4 0.6000000000000001 0.0
6.800000000000001 0.6000000000000001 0.0
7.2 0.6000000000000001 0.0
7.6000000000000005 0.6000000000000001 0.0
8.0 0.6000000000000001 0.0
8.4 0.6000000000000001 0.0
8.8 0.6000000000000001 0.0
9.200000000000001 0.6000000000000001 0.0
9.600000000000001 0.6000000000000001 0.0
10.0 0.6000000000000001 0.0
10.4 0.6000000000000001 0.0
10.8 0.6000000000000001 0.0
11.200000000000001 0.6000000000000001 0.0
11.600000000000001 0.6000000000000001 0.0
12.0 0.6000000000000001 0.0
12.4 0.6000000000000001 0.0
12.8 0.6000000000000001 0.0
13.200000000000001 0.6000000000000001 0.0
13.600000000000001 0.6000000000000001 0.0
14.0 0.6000000000000001 0.0
14.4 0.6000000000000001 0.0
14.8 0.6000000000000001 0.0
15.200000000000001 0.6000000000000001 0.0
15.600000000000001 0.6000000000000001 0.0
16.0 0.6000000000000001 0.0
0.0 0.7000000000000001 0.0
0.4 0.7000000000000001 0.0
0.8 0.7000000000000001 0.0
1.2000000000000002 0.7000000000000001 0.0
1.6 0.7000000000000001 0.0
2.0 0.7000000000000001 0.0
2.4000000000000004 0.7000000000000001 0.0
2.8000000000000003 0.7000000000000001 0.0
3.2 0.7000000000000001 0.0
3.6 0.7000000000000001 0.0
4.0 0.7000000000000001 0.0
4.4 0.7000000000000001 0.0
4.800000000000001 0.7000000000000001 0.0
5.2 0.7000000000000001 0.0
5.6000000000000005 0.7000000000000001 0.0
6.0 0.7000000000000001 0.0
6.4 0.7000000000000001 0.0
6.800000000000001 0.7000000000000001 0.0
7.2 0.7000000000000001 0.0
7.6000000000000005 0.7000000000000001 0.0
8.0 0.7000000000000001 0.0
8.4 0.7000000000000001 0.0
8.8 0.7000000000000001 0.0
9.200000000000001 0.7000000000000001 0.0
9.600000000000001 0.7000000000000001 0.0
10.0 0.7000000000000001 0.0
10.4 0.7000000000000001 0.0
10.8 0.7000000000000001 0.0
11.200000000000001 0.7000000000000001 0.0
11.600000000000001 0.7000000000000001 0.0
12.0 0.7000000000000001 0.0
12.4 0.7000000000000001 0.0
12.8 0.7000000000000001 0.0
13.200000000000001 0.7000000000000001 0.0
13.600000000000001 0.7000000000000001 0.0
14.0 0.7000000000000001 0.0
14.4 0.7000000000000001 0.0
14.8 0.7000000000000001 0.0
15.200000000000001 0.7000000000000001 0.0
15.600000000000001 0.7000000000000001 0.0
16.0 0.7000000000000001 0.0
0.0 0.8 0.0
0.4 0.8 0.0
0.8 0.8 0.0
1.2000000000000002 0.8 0.0
1.6 0.8 0.0
2.0 0.8 0.0
2.4000000000000004 0.8 0.0
2.8000000000000003 0.8 0.0
3.2 0.8 0.0
3.6 0.8 0.0
4.0 0.8 0.0
4.4 0.8 0.0
4.800000000000001 0.8 0.0
5.2 0.8 0.0
5.6000000000000005 0.8 0.0
6.0 0.8 0.0
6.4 0.8 0.0
6.800000000000001 0.8 0.0
7.2 0.8 0.0
7.6000000000000005 0.8 0.0
8.0 0.8 0.0
8.4 0.8 0.0
8.8 0.8 0.0
9.200000000000001 0.8 0.0
9.600000000000001 0.8 0.0
10.0 0.8 0.0
10.4 0.8 0.0
10.8 0.8 0.0
11.200000000000001 0.8 0.0
11.600000000000001 0.8 0.0
12.0 0.8 0.0
12.4 0.8 0.0
12.8 0.8 0.0
13.200000000000001 0.8 0.0
13.600000000000001 0.8 0.0
14.0 0.8 0.0
14.4 0.8 0.0
14.8 0.8 0.0
15.200000000000001 0.8 0.0
15.600000000000001 0.8 0.0
16.0 0.8 0.0
0.0 0.9 0.0
0.4 0.9 0.0
0.8 0.9 0.0
1.2000000000000002 0.9 0.0
1.6 0.9 0.0
2.0 0.9 0.0
2.4000000000000004 0.9 0.0
2.8000000000000003 0.9 0.0
3.2 0.9 0.0
3.6 0.9 0.0
4.0 0.9 0.0
4.4 0.9 0.0
4.800000000000001 0.9 0.0
5.2 0.9 0.0
5.6000000000000005 0.9 0.0
6.0 0.9 0.0
6.4 0.9 0.0
6.800000000000001 0.9 0.0
7.2 0.9 0.0
7.6000000000000005 0.9 0.0
8.0 0.9 0.0
8.4 0.9 0.0
8.8 0.9 0.0
9.200000000000001 0.9 0.0
9.600000000000001 0.9 0.0
10.0 0.9 0.0
10.4 0.9 0.0
10.8 0.9 0.0
11.200000000000001 0.9 0.0
11.600000000000001 0.9 0.0
12.0 0.9 0.0
12.4 0.9 0.0
12.8 0.9 0.0
13.200000000000001 0.9 0.0
13.600000000000001 0.9 0.0
14.0 0.9 0.0
14.4 0.9 0.0
14.8 0.9 0.0
15.200000000000001 0.9 0.0
15.600000000000001 0.9 0.0
16.0 0.9 0.0
0.0 1.0 0.0
0.4 1.0 0.0
0.8 1.0 0.0
1.2000000000000002 1.0 0.0
1.6 1.0 0.0
2.0 1.0 0.0
2.4000000000000004 1.0 0.0
2.8000000000000003 1.0 0.0
3.2 1.0 0.0
3.6 1.0 0.0
4.0 1.0 0.0
4.4 1.0 0.0
4.800000000000001 1.0 0.0
5.2 1.0 0.0
5.6000000000000005 1.0 0.0
6.0 1.0 0.0
6.4 1.0 0.0
6.800000000000001 1.0 0.0
7.2 1.0 0.0
7.6000000000000005 1.0 0.0
8.0 1.0 0.0
8.4 1.0 0.0
8.8 1.0 0.0
9.200000000000001 1.0 0.0
9.600000000000001 1.0 0.0
10.0 1.0 0.0
10.4 1.0 0.0
10.8 1.0 0.0
11.200000000000001 1.0 0.0
11.600000000000001 1.0 0.0
12.0 1.0 0.0
12.4 1.0 0.0
12.8 1.0 0.0
13.200000000000001 1.0 0.0
13.600000000000001 1.0 0.0
14.0 1.0 0.0
14.4 1.0 0.0
14.8 1.0 0.0
15.200000000000001 1.0 0.0
15.600000000000001 1.0 0.0
16.0 1.0 0.0
0.0 1.1 0.0
0.4 1.1 0.0
0.8 1.1 0.0
1.2000000000000002 1.1 0.0
1.6 1.1 0.0
[...]
POINT_DATA 861
SCALARS Disp float 2
LOOKUP_TABLE default
0.0 0.0
0.005728326069797861 -0.2426478422586879
0.007036310921757891 -0.4761971595227314
0.007817700850633665 -0.7087183841551312
0.008822016477381261 -0.9408798963675418
0.010433534511920372 -1.1722832028713506
0.013251041097721244 -1.4023994216536009
0.0180017991384816 -1.630563424677244
0.025540847178245858 -1.8559447305036103
0.03680034773047586 -2.0774641491458605
0.05271286016220782 -2.2936670683443343
0.07416210575799262 -2.5026440778233625
0.10196011080970872 -2.7020528791758363
0.13683869503388968 -2.889227369637011
0.17944757598321923 -3.06125899922945
0.23028757143923503 -3.215059786914955
0.28958812478874774 -3.347441588088112
0.35715851267023935 -3.4552452333463037
0.43225899198567885 -3.53555570986143
0.5135453800119796 -3.585947750796569
0.5988761323048164 -3.604766845748381
0.6842068845976484 -3.585947750796455
0.7654932726239315 -3.535555709861201
0.840593751939341 -3.4552452333459716
0.9081641398207948 -3.3474415880876967
0.9674646931702676 -3.2150597869144812
1.0183046886262426 -3.06125899922893
1.0609135695755316 -2.889227369636461
1.0957921537996718 -2.7020528791752723
1.1235901588513486 -2.502644077822804
1.1450394044470986 -2.2936670683437947
1.1609519168788023 -2.077464149145353
1.1722114174310103 -1.8559447305031411
1.179750465470758 -1.6305634246768206
1.1845012235115069 -1.4023994216532274
1.1873187300973007 -1.172283202871034
1.188930248131837 -0.9408798963672825
1.1899345637585836 -0.7087183841549328
1.1907159536874592 -0.47619715952259234
1.192023938539418 -0.24264784225861083
1.1977522646092125 0.0
0.06052591110245977 -0.0023885439473304354
0.0645260872141825 -0.2429050087869845
0.06521019294920576 -0.47625900346544203
0.06590344948554266 -0.7088073415652208
0.06678539404449428 -0.9410220942580652
0.06815659233902298 -1.1725956536581454
0.07058012806014438 -1.4030461317766385
0.07474294111412151 -1.6317401118602284
0.08144835896407551 -1.85787003059665
0.09154787855442895 -2.080360780121241
0.10587366508194457 -2.2977482226363373
0.12519893842653934 -2.5081075620266464
0.15023849541776552 -2.709080903998356
0.18165805450032685 -2.8979860992897426
0.2200514522678989 -3.0718912807882077
0.2658859813516292 -3.227662159796252
0.31939179996762057 -3.3620304615783856
0.3804295374249862 -3.4717222226240945
0.44836796441992294 -3.553679771918005
0.5219375915584318 -3.605310624032183
0.5988761323048024 -3.624640869976667
0.6758146730511685 -3.6053106240320667
0.749384300189661 -3.55367977191777
0.8173227271845713 -3.4717222226237547
0.878360464641904 -3.362030461577961
0.9318662832578599 -3.2276621597957686
0.9777008123415534 -3.071891280787679
1.0160942101090888 -2.8979860992891826
1.0475137691916134 -2.709080903997783
1.0725533261828044 -2.5081075620260784
1.0918785995273679 -2.29774822263579
1.1062043860548578 -2.0803607801207273
1.116303905645191 -1.8578700305961764
1.1230093234951302 -1.6317401118598016
1.127172136549097 -1.403046131776263
1.1295956722702125 -1.172595653657828
1.1309668705647387 -0.9410220942578058
1.1318488151236896 -0.7088073415650225
1.1325420716600265 -0.476259003465303
1.1332261773950498 -0.2429050087869071
1.137226353506767 -0.0023885439473279005
0.12008035969092394 -0.004283385464502344
0.12301153908511096 -0.2430323210848824
0.12340394307907891 -0.4762921577469263
0.12396965614854023 -0.7088857318415214
0.12473878916755766 -0.9411358378038771
0.1258941239985616 -1.1728428772751844
0.12793285737558344 -1.403581389515719
0.13151047560985882 -1.6327487895086603
0.1373680396932135 -1.8595553787108288
0.14627918852291688 -2.0829239645257296
0.15898029449433487 -2.3013769611503343
0.17614383219516438 -2.512973862880166
0.19838974150114294 -2.715345706796085
0.22630497068124228 -2.9058005158907805
0.2604317972040556 -3.081386622394292
0.3012042701463949 -3.238930604815642
0.3488629164486502 -3.3750960478677023
0.40333639209481037 -3.486507832229962
0.46409489953615424 -3.5699724894445652
0.5299381646882096 -3.622698632185509
0.598876132304789 -3.642490814454913
0.6678140999213639 -3.6226986321853905
0.7336573650734043 -3.569972489444325
0.794415872514725 -3.4865078322296155
0.8488893481608566 -3.37509604786727
0.8965479944630805 -3.23893060481515
0.9373204674053867 -3.081386622393754
0.9714472939281674 -2.905800515890212
0.999362523108234 -2.715345706795503
1.0216084324141819 -2.512973862879591
1.0387719701149833 -2.301376961149781
1.0514730760863784 -2.082923964525211
1.0603842249160638 -1.859555378710351
1.066241788999405 -1.632748789508231
1.069819407233671 -1.403581389515342
1.0718581406106882 -1.172842877274866
1.0730134754416902 -0.9411358378036174
1.0737826084607072 -0.7088857318413229
1.0743483215301686 -0.47629215774678724
1.0747407255241366 -0.24303232108480463
1.077671904918318 -0.004283385464497057
0.17912272233017312 -0.005805671386990418
0.18133627496957955 -0.24311905842283174
0.18157569374321578 -0.4763105129415856
0.1820183373447926 -0.7089492852497048
0.1826771377086661 -0.9412289391640608
0.18364273438041298 -1.1730327303443926
0.18531899840807547 -1.404009018799472
0.18831821046455635 -1.633590603108172
0.19332317802642376 -1.8609977322812754
0.20102930343316297 -2.085147953989168
0.2120818038305773 -2.3045462208125365
0.22705660638552266 -2.517236514460191
0.24648312815690704 -2.7208407872619444
0.27086822613236733 -2.9126617252840434
0.3006906079700779 -3.089734331523117
0.336358176502821 -3.2488538350137617
0.3781257855768585 -3.386628456115969
0.4259893326417107 -3.499595293022499
0.47952749333690226 -3.584427276220191
0.5377187337934912 -3.638154626460337
0.5988761323047758 -3.658413131494318
0.6600335308160565 -3.6381546264602163
0.7182247712726321 -3.584427276219946
0.771762931967803 -3.499595293022147
0.8196264790326304 -3.3866284561155293
0.8613940881066404 -3.2488538350132625
0.8970616566393546 -3.0897343315225716
0.9268840384770364 -2.912661725283468
0.9512691364524679 -2.7208407872613556
0.9706956582238254 -2.5172365144596087
0.9856704607787464 -2.3045462208119774
0.9967229611761409 -2.0851479539886446
1.004429086582864 -1.860997732280794
1.0094340541447193 -1.63359060310774
1.0124332662011926 -1.4040090187990932
1.014109530228851 -1.1730327303440735
1.0150751269005966 -0.9412289391638009
1.0157339272644699 -0.7089492852495063
1.0161765708660468 -0.47631051294144655
1.016415989639683 -0.2431190584227536
1.0186295422790845 -0.005805671386982659
0.23787268350090718 -0.007035336618102281
0.23955053583515537 -0.24318672882386846
0.23970677073790853 -0.47632106350090714
0.24004559120081317 -0.7089986213288748
0.24059687999120494 -0.9413051911158146
0.24139453154516985 -1.1731768367463453
0.24274514228152239 -1.4043368610687346
0.24517915676117158 -1.6342684028673033
0.24933729339785368 -1.8621973200365705
0.2558334215935203 -2.0870302710733117
0.2652258004273721 -2.3072525907761627
0.2779985817850287 -2.5208916146179985
0.29459024221939695 -2.7255623415398844
0.3154285073329072 -2.918565581456709
0.34093215130510357 -3.0969281570266878
0.3714692304548476 -3.2574236944500985
0.40730577570766757 -3.3966177299746274
0.44850687405767586 -3.5109728298814984
0.49479054175115356 -3.5970448931399046
0.5453697332301553 -3.6517107104072295
0.598876132304763 -3.6724610557684194
0.6523825313793671 -3.651710710407107
0.7029617228583567 -3.597044893139656
0.7492453905518164 -3.5109728298811405
0.7904464889018036 -3.3966177299741824
0.8262830341545996 -3.2574236944495922
0.8568201133043185 -3.0969281570261358
0.88232375727649 -2.918565581456127
0.903162022389976 -2.72556234153929
0.9197536828243211 -2.5208916146174105
0.9325264641819571 -2.3072525907755983
0.9419188430157919 -2.0870302710727837
0.9484149712114447 -1.8621973200360862
0.9525731078481162 -1.6342684028668695
0.9550071223277593 -1.4043368610683549
0.9563577330641088 -1.173176836746026
0.9571553846180727 -0.9413051911155548
0.9577066734084643 -0.7089986213286763
0.958045493871369 -0.47632106350076814
0.9582017287741221 -0.24318672882379003
0.9598795811083662 -0.007035336618092369
0.29642943824994844 -0.008022753678890661
0.2976875692701978 -0.24324268454665343
0.29779539907256125 -0.4763285536208535
0.2980484837218434 -0.7090351608544054
0.29849423801797986 -0.9413674281066052
0.29914342513802217 -1.1732853589270462
0.30020382193175926 -1.4045780494648932
0.3021128764229011 -1.6347879732028066
0.3054340558405166 -1.863157061758336
0.3107269226231442 -2.088571957407806
0.31846011637603605 -2.309495779391991
0.32902903851055726 -2.5239387726824036
0.34278485052116286 -2.729509792043724
0.3600748982717251 -2.9235111705969894
0.38125319447941414 -3.102967078990997
0.4066545409049254 -3.2646364598566384
0.43653777766497937 -3.405054642098913
0.47102579676857526 -3.5206285396064882
0.5100049749252068 -3.607822134808743
0.5529650980140236 -3.663382831223219
0.59887613230475 -3.684666098051886
0.6447871665954732 -3.6633828312230943
0.6877472896842792 -3.607822134808491
0.7267264678408957 -3.520628539606126
0.7612144869444738 -3.405054642098463
0.7910977237045075 -3.264636459856127
0.8164990701299973 -3.102967078990439
0.8376773663376658 -2.9235111705964014
0.8549674140882079 -2.729509792043124
0.8687232260987944 -2.5239387726818103
0.8792921482332986 -2.3094957793914226
0.8870253419861763 -2.088571957407274
0.8923182087687921 -1.8631570617578488
0.895639388186399 -1.6347879732023711
0.8975484426775361 -1.4045780494645128
0.898608839471271 -1.173285358926727
0.8992580265913127 -0.9413674281063454
0.8997037808874491 -0.7090351608542069
0.8999568655367312 -0.47632855362071447
0.9000646953390946 -0.2432426845465748
0.9013228263593407 -0.008022753678878882
0.35484519622451427 -0.008806474584837012
0.35577027137358735 -0.24328970884321727
0.3558466575518083 -0.47633538560433425
0.35602677525417886 -0.7090603406669161
0.3563684266266299 -0.9414170230124365
0.35688222887680715 -1.173366629870264
0.35768581478098027 -1.4047481574024039
0.35911690011011493 -1.635163653330728
0.3616413256644569 -1.86388318972449
0.3657461091220449 -2.0897773077299586
0.3718336040116733 -2.311279174491107
0.3802096520343312 -2.5263809768593366
0.39114051391812105 -2.7326863878683345
0.4048947299092091 -2.9275018100866683
0.4217613648818131 -3.1078534068949737
0.44203078422781544 -3.270492974344836
0.46595364118636856 -3.4119346125919265
0.4936958684200948 -3.528550668721142
0.5253030568385058 -3.6167475441767913
0.5605790938782776 -3.673170471293922
0.5988761323047367 -3.6950417307467656
0.6371731707311934 -3.6731704712937954
0.6724492077709562 -3.616747544176537
0.7040563961893548 -3.528550668720776
0.7317986234230662 -3.4119346125914722
0.7557214803816029 -3.2704929743443194
0.7759908997275877 -3.1078534068944115
0.7928575347001754 -2.927501810086076
0.8066117506912477 -2.7326863878677305
0.8175426125750225 -2.5263809768587393
0.8259186605976668 -2.311279174490535
0.8320061554872837 -2.0897773077294244
0.8361109389448622 -1.863883189724001
0.8386353644991978 -1.6351636533302913
0.840066449828329 -1.4047481574020229
0.8408700357325006 -1.1733666298699448
0.8413838379826777 -0.9414170230121767
0.8417254893551285 -0.7090603406667175
0.841905607057499 -0.4763353856041952
0.8419819932357198 -0.2432897088431384
0.8429070683847903 -0.008806474584823734
0.413154939602121 -0.009417447170326753
0.4138157589097469 -0.24332995367340596
0.41386789021657194 -0.47634206928611234
0.4139822535170715 -0.7090754751868393
0.41422136854151126 -0.9414537631480301
0.4146038900012385 -1.1734270015735493
0.41518564684402554 -1.4048616628411035
0.41618630518276595 -1.6354147429613228
0.4179712566268239 -1.864390649639595
0.4209313307929027 -2.0906549233482385
0.4253974948763993 -2.3126097924770845
0.43160250798052824 -2.5282250271504565
0.4397334375016447 -2.7350995577288177
0.4499794110101584 -2.9305452483125496
0.46255982443864724 -3.1115944277973253
0.47771975798138006 -3.2749983509153933
0.4956939398250477 -3.4172582831851677
0.516670184483012 -3.5347299920774526
0.5408282003368039 -3.623801248205188
0.5682959562036928 -3.681055007302172
0.5988761323047233 -3.7035830220868355
0.629456308405752 -3.681055007302044
0.6569240642726336 -3.623801248204931
0.6810820801264158 -3.534729992077084
0.7020583247843687 -3.4172582831847103
0.7200325066280235 -3.2749983509148732
0.7351924401707429 -3.11159442779676
0.7477728535992197 -2.930545248311954
0.7580188271077224 -2.7350995577282107
0.7661497566288278 -2.5282250271498565
0.7723547697329463 -2.3126097924765103
0.7768209338164344 -2.090654923347702
0.7797810079825064 -1.8643906496391043
0.7815659594265599 -1.6354147429608854
0.7825666177652979 -1.4048616628407222
0.7831483746080841 -1.17342700157323
0.783530896067811 -0.9414537631477701
0.7837700110922508 -0.7090754751866408
0.7838843743927503 -0.4763420692859732
0.7839365056995752 -0.243329953673327
0.7845973250071991 -0.009417447170312272
0.47137993547528784 -0.009884850293510834
0.4718399916012282 -0.24336531536095626
0.4718658476452149 -0.47634779454346954
0.47191806769702194 -0.7090816079372766
0.4720572886211991 -0.9414769695742006
0.4723055069933777 -1.1734694952654672
0.47268838806282215 -1.40493364202664
0.47331507394277544 -1.6355638802088845
0.47442695481267755 -1.8647030824704707
0.47630968846261973 -2.091222679013313
0.47920473211877485 -2.313500273371272
0.48327691866331 -2.529482680118755
0.48864327161688814 -2.736761680886709
0.49542159196940067 -2.932654725860559
0.5037589443376254 -3.114202618705672
0.5138435227994687 -3.2781630520908
0.5258928359976014 -3.4210336387755182
0.5401177554117944 -3.5391629967680283
0.5567548196168494 -3.6289569357952165
0.5762212583122331 -3.68699743211714
0.5988761323047095 -3.7102644585349225
0.6215310062971843 -3.6869974321170114
0.6409974449925634 -3.6289569357949585
0.6576345091976113 -3.539162996767657
0.6718594286117962 -3.4210336387750586
0.68390874180992 -3.278163052090277
0.6939933202717544 -3.1142026187051037
0.7023306726399715 -2.932654725859962
0.7091089929924772 -2.736761680886099
0.7144753459460483 -2.529482680118153
0.7185475324905765 -2.3135002733706957
0.7214425761467261 -2.091222679012775
0.7233253097966644 -1.8647030824699793
0.7244371906665636 -1.6355638802084465
0.7250638765465156 -1.4049336420262588
0.7254467576159596 -1.1734694952651479
0.7256949759881381 -0.9414769695739407
0.7258341969123152 -0.709081607937078
0.7258864169641223 -0.47634779454333037
0.7259122730081088 -0.24336531536087724
0.7263723291340479 -0.009884850293495402
0.5295350468495963 -0.010238152744588558
0.5298520034299092 -0.24339823304221275
0.5298467401515923 -0.4763508061671904
0.5298383063293948 -0.7090795045486581
0.529880564863605 -0.9414865009778168
0.529991146466303 -1.173493579924958
0.5301798000363885 -1.4049749047438758
0.5304845313706468 -1.6356379651770379
0.5310030042091402 -1.864854444055224
0.5318961271926412 -2.091511951797885
0.5332970096580871 -2.3139760016803104
0.5352981738807094 -2.530175396164457
0.5379500712437378 -2.73769317364842
0.5413098997985485 -2.933851726380911
0.5454576006043778 -3.1156993907496804
0.5505139130258133 -3.280005106037469
0.556663102871755 -3.423275453870098
0.5641532360590236 -3.5418616242124603
0.5732748191100704 -3.6321944953376013
0.5845172312239133 -3.6909350541568786
0.598876132304695 -3.7150310821532866
0.613235033385476 -3.690935054156749
0.6244774454993168 -3.632194495337342
0.6335990285503592 -3.5418616242120877
0.641089161737623 -3.423275453869636
0.6472383515835604 -3.2800051060369446
0.6522946640049919 -3.11569939074911
0.6564423648108179 -2.933851726380312
0.6598021933656262 -2.737693173647809
0.6624540907286514 -2.5301753961638536
0.6644552549512704 -2.3139760016797326
0.6658561374167143 -2.091511951797346
0.6667492604002139 -1.8648544440547319
0.667267733238706 -1.6356379651765993
0.6675724645729637 -1.4049749047434943
0.6677611181430492 -1.1734935799246384
0.6678716997457471 -0.9414865009775569
0.6679139582799574 -0.7090795045484595
0.6679055244577597 -0.47635080616705117
0.6679002611794427 -0.24339823304213376
0.6682172177597548 -0.010238152744572453
0.5876371243326125 -0.010502767740770419
0.5878533861030517 -0.24343142164326712
0.5878155907226076 -0.4763493606525435
0.5877474829163571 -0.7090696624553364
0.5876953255133885 -0.9414825198648045
0.5876687349054831 -1.173498445976329
0.5876586159625674 -1.4049879031114418
0.5876552355779989 -1.635660731114985
0.5876542477605241 -1.8648949615822956
0.5876542594879313 -2.0915853069050176
0.587654428391189 -2.3140972079694353
0.5876535399105798 -2.5303566494758165
0.5876462751473347 -2.737944754646405
0.58762939473145 -2.934184999390885
0.587614032989953 -3.1161317848414014
0.5876574396473249 -3.2805669280903733
0.587908016619381 -3.4240189452383945
0.5886558040408051 -3.5428632634164945
0.5903148320076423 -3.6335455959106504
0.5933460847556078 -3.692810724752948
0.5988761323046801 -3.7177918892754853
0.6044061798537527 -3.692810724752819
0.6074374326017176 -3.6335455959103906
0.6090964605685536 -3.542863263416121
0.6098442479899774 -3.4240189452379326
0.6100948249620344 -3.2805669280898484
0.6101382316194066 -3.116131784840831
0.6101228698779108 -2.9341849993902853
0.6101059894620278 -2.7379447546457945
0.6100987246987841 -2.5303566494752125
0.6100978362181758 -2.314097207968857
0.6100980051214346 -2.0915853069044785
0.6100980168488424 -1.8648949615818038
0.6100970290313676 -1.6356607311145464
0.6100936486467993 -1.4049879031110604
0.6100835297038837 -1.1734984459760094
0.6100569390959784 -0.9414825198645446
0.6100047816930098 -0.7090696624551378
0.6099366738867594 -0.47634936065240424
0.6098988785063152 -0.24343142164318818
0.610115140276754 -0.010502767740753862
0.6456972107126527 -0.010703224336939885
0.6458439783634097 -0.24346478778493005
0.6457765442970425 -0.47634304195811134
0.6456505526065355 -0.7090522504397196
0.6455067205446403 -0.9414654445656463
0.6453451317203607 -1.1734839232624912
0.6451368961512076 -1.4049723451695173
0.6448254050412745 -1.6356373205107857
0.6443051314693575 -1.8648543319043291
0.6434123304841208 -2.091511974936999
0.6420121934094041 -2.3139760184296487
0.6400079842089822 -2.5301735544290476
0.6373407888989681 -2.7376875031913253
0.6339478450394005 -2.933842902135812
0.6297729080656045 -3.1157008400313364
0.6248083656218856 -3.280060534560919
0.6191534140550649 -3.4234808283941796
0.6130803099400765 -3.542379445684154
0.6070358205682398 -3.633209576013143
0.6016675995833876 -3.6927393703161564
0.5988761323046651 -3.718649295126877
0.5960846650259417 -3.6927393703160267
0.5907164440410898 -3.633209576012883
0.5846719546692565 -3.542379445683781
0.5785988505542735 -3.423480828393719
0.5729438989874587 -3.280060534560394
0.567979356543745 -3.1157008400307675
0.5638044195699542 -2.9338429021352135
0.5604114757103924 -2.7376875031907155
0.5577442804003845 -2.5301735544284445
0.5557400711999676 -2.313976018429071
0.5543399341252554 -2.0915119749364606
0.5534471331400214 -1.8648543319038373
0.5529268595681057 -1.6356373205103474
0.5526153684581735 -1.4049723451691358
0.5524071328890209 -1.1734839232621717
0.5522455440647414 -0.9414654445653865
0.5521017120028465 -0.7090522504395209
0.5519757203123395 -0.47634304195797206
0.5519082862459723 -0.24346478778485112
0.5520550538967292 -0.010703224336923112
0.7037279532877445 -0.010856675709992622
0.7038274354220456 -0.2434964072338125
0.703733487774115 -0.4763322615966691
0.7035526890807088 -0.7090274653204417
0.7033206076522733 -0.941435881592462
0.703027477128447 -1.1734504486133193
0.7026259851703774 -1.4049284552693604
0.7019930300724792 -1.635562438903438
0.700880446174262 -1.8647029177956385
0.698999042191451 -2.0912229073685267
0.6961042127651388 -2.313499961739206
0.6920281309515672 -2.5294786567677665
0.6866481405295634 -2.7367500922942485
0.6798420346598664 -2.932637288992287
0.6714846161219007 -3.114206714679442
0.6614928829779274 -3.2782765703760353
0.6499105465157041 -3.421443797012089
0.6369814294441716 -3.540176676379821
0.6232180101750203 -3.6309847983202728
0.6097450323716412 -3.6908321219747156
0.5988761323046504 -3.7177755845577