# vtk DataFile Version 3.0
Some data
ASCII
DATASET UNSTRUCTURED_GRID
POINTS 861 float
0.0 0.0 0.0
0.4 0.0 0.0
0.8 0.0 0.0
1.2000000000000002 0.0 0.0
1.6 0.0 0.0
2.0 0.0 0.0
2.4000000000000004 0.0 0.0
2.8000000000000003 0.0 0.0
3.2 0.0 0.0
3.6 0.0 0.0
4.0 0.0 0.0
4.4 0.0 0.0
4.800000000000001 0.0 0.0
5.2 0.0 0.0
5.6000000000000005 0.0 0.0
6.0 0.0 0.0
6.4 0.0 0.0
6.800000000000001 0.0 0.0
7.2 0.0 0.0
7.6000000000000005 0.0 0.0
8.0 0.0 0.0
8.4 0.0 0.0
8.8 0.0 0.0
9.200000000000001 0.0 0.0
9.600000000000001 0.0 0.0
10.0 0.0 0.0
10.4 0.0 0.0
10.8 0.0 0.0
11.200000000000001 0.0 0.0
11.600000000000001 0.0 0.0
12.0 0.0 0.0
12.4 0.0 0.0
12.8 0.0 0.0
13.200000000000001 0.0 0.0
13.600000000000001 0.0 0.0
14.0 0.0 0.0
14.4 0.0 0.0
14.8 0.0 0.0
15.200000000000001 0.0 0.0
15.600000000000001 0.0 0.0
16.0 0.0 0.0
0.0 0.1 0.0
0.4 0.1 0.0
0.8 0.1 0.0
1.2000000000000002 0.1 0.0
1.6 0.1 0.0
2.0 0.1 0.0
2.4000000000000004 0.1 0.0
2.8000000000000003 0.1 0.0
3.2 0.1 0.0
3.6 0.1 0.0
4.0 0.1 0.0
4.4 0.1 0.0
4.800000000000001 0.1 0.0
5.2 0.1 0.0
5.6000000000000005 0.1 0.0
6.0 0.1 0.0
6.4 0.1 0.0
6.800000000000001 0.1 0.0
7.2 0.1 0.0
7.6000000000000005 0.1 0.0
8.0 0.1 0.0
8.4 0.1 0.0
8.8 0.1 0.0
9.200000000000001 0.1 0.0
9.600000000000001 0.1 0.0
10.0 0.1 0.0
10.4 0.1 0.0
10.8 0.1 0.0
11.200000000000001 0.1 0.0
11.600000000000001 0.1 0.0
12.0 0.1 0.0
12.4 0.1 0.0
12.8 0.1 0.0
13.200000000000001 0.1 0.0
13.600000000000001 0.1 0.0
14.0 0.1 0.0
14.4 0.1 0.0
14.8 0.1 0.0
15.200000000000001 0.1 0.0
15.600000000000001 0.1 0.0
16.0 0.1 0.0
0.0 0.2 0.0
0.4 0.2 0.0
0.8 0.2 0.0
1.2000000000000002 0.2 0.0
1.6 0.2 0.0
2.0 0.2 0.0
2.4000000000000004 0.2 0.0
2.8000000000000003 0.2 0.0
3.2 0.2 0.0
3.6 0.2 0.0
4.0 0.2 0.0
4.4 0.2 0.0
4.800000000000001 0.2 0.0
5.2 0.2 0.0
5.6000000000000005 0.2 0.0
6.0 0.2 0.0
6.4 0.2 0.0
6.800000000000001 0.2 0.0
7.2 0.2 0.0
7.6000000000000005 0.2 0.0
8.0 0.2 0.0
8.4 0.2 0.0
8.8 0.2 0.0
9.200000000000001 0.2 0.0
9.600000000000001 0.2 0.0
10.0 0.2 0.0
10.4 0.2 0.0
10.8 0.2 0.0
11.200000000000001 0.2 0.0
11.600000000000001 0.2 0.0
12.0 0.2 0.0
12.4 0.2 0.0
12.8 0.2 0.0
13.200000000000001 0.2 0.0
13.600000000000001 0.2 0.0
14.0 0.2 0.0
14.4 0.2 0.0
14.8 0.2 0.0
15.200000000000001 0.2 0.0
15.600000000000001 0.2 0.0
16.0 0.2 0.0
0.0 0.30000000000000004 0.0
0.4 0.30000000000000004 0.0
0.8 0.30000000000000004 0.0
1.2000000000000002 0.30000000000000004 0.0
1.6 0.30000000000000004 0.0
2.0 0.30000000000000004 0.0
2.4000000000000004 0.30000000000000004 0.0
2.8000000000000003 0.30000000000000004 0.0
3.2 0.30000000000000004 0.0
3.6 0.30000000000000004 0.0
4.0 0.30000000000000004 0.0
4.4 0.30000000000000004 0.0
4.800000000000001 0.30000000000000004 0.0
5.2 0.30000000000000004 0.0
5.6000000000000005 0.30000000000000004 0.0
6.0 0.30000000000000004 0.0
6.4 0.30000000000000004 0.0
6.800000000000001 0.30000000000000004 0.0
7.2 0.30000000000000004 0.0
7.6000000000000005 0.30000000000000004 0.0
8.0 0.30000000000000004 0.0
8.4 0.30000000000000004 0.0
8.8 0.30000000000000004 0.0
9.200000000000001 0.30000000000000004 0.0
9.600000000000001 0.30000000000000004 0.0
10.0 0.30000000000000004 0.0
10.4 0.30000000000000004 0.0
10.8 0.30000000000000004 0.0
11.200000000000001 0.30000000000000004 0.0
11.600000000000001 0.30000000000000004 0.0
12.0 0.30000000000000004 0.0
12.4 0.30000000000000004 0.0
12.8 0.30000000000000004 0.0
13.200000000000001 0.30000000000000004 0.0
13.600000000000001 0.30000000000000004 0.0
14.0 0.30000000000000004 0.0
14.4 0.30000000000000004 0.0
14.8 0.30000000000000004 0.0
15.200000000000001 0.30000000000000004 0.0
15.600000000000001 0.30000000000000004 0.0
16.0 0.30000000000000004 0.0
0.0 0.4 0.0
0.4 0.4 0.0
0.8 0.4 0.0
1.2000000000000002 0.4 0.0
1.6 0.4 0.0
2.0 0.4 0.0
2.4000000000000004 0.4 0.0
2.8000000000000003 0.4 0.0
3.2 0.4 0.0
3.6 0.4 0.0
4.0 0.4 0.0
4.4 0.4 0.0
4.800000000000001 0.4 0.0
5.2 0.4 0.0
5.6000000000000005 0.4 0.0
6.0 0.4 0.0
6.4 0.4 0.0
6.800000000000001 0.4 0.0
7.2 0.4 0.0
7.6000000000000005 0.4 0.0
8.0 0.4 0.0
8.4 0.4 0.0
8.8 0.4 0.0
9.200000000000001 0.4 0.0
9.600000000000001 0.4 0.0
10.0 0.4 0.0
10.4 0.4 0.0
10.8 0.4 0.0
11.200000000000001 0.4 0.0
11.600000000000001 0.4 0.0
12.0 0.4 0.0
12.4 0.4 0.0
12.8 0.4 0.0
13.200000000000001 0.4 0.0
13.600000000000001 0.4 0.0
14.0 0.4 0.0
14.4 0.4 0.0
14.8 0.4 0.0
15.200000000000001 0.4 0.0
15.600000000000001 0.4 0.0
16.0 0.4 0.0
0.0 0.5 0.0
0.4 0.5 0.0
0.8 0.5 0.0
1.2000000000000002 0.5 0.0
1.6 0.5 0.0
2.0 0.5 0.0
2.4000000000000004 0.5 0.0
2.8000000000000003 0.5 0.0
3.2 0.5 0.0
3.6 0.5 0.0
4.0 0.5 0.0
4.4 0.5 0.0
4.800000000000001 0.5 0.0
5.2 0.5 0.0
5.6000000000000005 0.5 0.0
6.0 0.5 0.0
6.4 0.5 0.0
6.800000000000001 0.5 0.0
7.2 0.5 0.0
7.6000000000000005 0.5 0.0
8.0 0.5 0.0
8.4 0.5 0.0
8.8 0.5 0.0
9.200000000000001 0.5 0.0
9.600000000000001 0.5 0.0
10.0 0.5 0.0
10.4 0.5 0.0
10.8 0.5 0.0
11.200000000000001 0.5 0.0
11.600000000000001 0.5 0.0
12.0 0.5 0.0
12.4 0.5 0.0
12.8 0.5 0.0
13.200000000000001 0.5 0.0
13.600000000000001 0.5 0.0
14.0 0.5 0.0
14.4 0.5 0.0
14.8 0.5 0.0
15.200000000000001 0.5 0.0
15.600000000000001 0.5 0.0
16.0 0.5 0.0
0.0 0.6000000000000001 0.0
0.4 0.6000000000000001 0.0
0.8 0.6000000000000001 0.0
1.2000000000000002 0.6000000000000001 0.0
1.6 0.6000000000000001 0.0
2.0 0.6000000000000001 0.0
2.4000000000000004 0.6000000000000001 0.0
2.8000000000000003 0.6000000000000001 0.0
3.2 0.6000000000000001 0.0
3.6 0.6000000000000001 0.0
4.0 0.6000000000000001 0.0
4.4 0.6000000000000001 0.0
4.800000000000001 0.6000000000000001 0.0
5.2 0.6000000000000001 0.0
5.6000000000000005 0.6000000000000001 0.0
6.0 0.6000000000000001 0.0
6.4 0.6000000000000001 0.0
6.800000000000001 0.6000000000000001 0.0
7.2 0.6000000000000001 0.0
7.6000000000000005 0.6000000000000001 0.0
8.0 0.6000000000000001 0.0
8.4 0.6000000000000001 0.0
8.8 0.6000000000000001 0.0
9.200000000000001 0.6000000000000001 0.0
9.600000000000001 0.6000000000000001 0.0
10.0 0.6000000000000001 0.0
10.4 0.6000000000000001 0.0
10.8 0.6000000000000001 0.0
11.200000000000001 0.6000000000000001 0.0
11.600000000000001 0.6000000000000001 0.0
12.0 0.6000000000000001 0.0
12.4 0.6000000000000001 0.0
12.8 0.6000000000000001 0.0
13.200000000000001 0.6000000000000001 0.0
13.600000000000001 0.6000000000000001 0.0
14.0 0.6000000000000001 0.0
14.4 0.6000000000000001 0.0
14.8 0.6000000000000001 0.0
15.200000000000001 0.6000000000000001 0.0
15.600000000000001 0.6000000000000001 0.0
16.0 0.6000000000000001 0.0
0.0 0.7000000000000001 0.0
0.4 0.7000000000000001 0.0
0.8 0.7000000000000001 0.0
1.2000000000000002 0.7000000000000001 0.0
1.6 0.7000000000000001 0.0
2.0 0.7000000000000001 0.0
2.4000000000000004 0.7000000000000001 0.0
2.8000000000000003 0.7000000000000001 0.0
3.2 0.7000000000000001 0.0
3.6 0.7000000000000001 0.0
4.0 0.7000000000000001 0.0
4.4 0.7000000000000001 0.0
4.800000000000001 0.7000000000000001 0.0
5.2 0.7000000000000001 0.0
5.6000000000000005 0.7000000000000001 0.0
6.0 0.7000000000000001 0.0
6.4 0.7000000000000001 0.0
6.800000000000001 0.7000000000000001 0.0
7.2 0.7000000000000001 0.0
7.6000000000000005 0.7000000000000001 0.0
8.0 0.7000000000000001 0.0
8.4 0.7000000000000001 0.0
8.8 0.7000000000000001 0.0
9.200000000000001 0.7000000000000001 0.0
9.600000000000001 0.7000000000000001 0.0
10.0 0.7000000000000001 0.0
10.4 0.7000000000000001 0.0
10.8 0.7000000000000001 0.0
11.200000000000001 0.7000000000000001 0.0
11.600000000000001 0.7000000000000001 0.0
12.0 0.7000000000000001 0.0
12.4 0.7000000000000001 0.0
12.8 0.7000000000000001 0.0
13.200000000000001 0.7000000000000001 0.0
13.600000000000001 0.7000000000000001 0.0
14.0 0.7000000000000001 0.0
14.4 0.7000000000000001 0.0
14.8 0.7000000000000001 0.0
15.200000000000001 0.7000000000000001 0.0
15.600000000000001 0.7000000000000001 0.0
16.0 0.7000000000000001 0.0
0.0 0.8 0.0
0.4 0.8 0.0
0.8 0.8 0.0
1.2000000000000002 0.8 0.0
1.6 0.8 0.0
2.0 0.8 0.0
2.4000000000000004 0.8 0.0
2.8000000000000003 0.8 0.0
3.2 0.8 0.0
3.6 0.8 0.0
4.0 0.8 0.0
4.4 0.8 0.0
4.800000000000001 0.8 0.0
5.2 0.8 0.0
5.6000000000000005 0.8 0.0
6.0 0.8 0.0
6.4 0.8 0.0
6.800000000000001 0.8 0.0
7.2 0.8 0.0
7.6000000000000005 0.8 0.0
8.0 0.8 0.0
8.4 0.8 0.0
8.8 0.8 0.0
9.200000000000001 0.8 0.0
9.600000000000001 0.8 0.0
10.0 0.8 0.0
10.4 0.8 0.0
10.8 0.8 0.0
11.200000000000001 0.8 0.0
11.600000000000001 0.8 0.0
12.0 0.8 0.0
12.4 0.8 0.0
12.8 0.8 0.0
13.200000000000001 0.8 0.0
13.600000000000001 0.8 0.0
14.0 0.8 0.0
14.4 0.8 0.0
14.8 0.8 0.0
15.200000000000001 0.8 0.0
15.600000000000001 0.8 0.0
16.0 0.8 0.0
0.0 0.9 0.0
0.4 0.9 0.0
0.8 0.9 0.0
1.2000000000000002 0.9 0.0
1.6 0.9 0.0
2.0 0.9 0.0
2.4000000000000004 0.9 0.0
2.8000000000000003 0.9 0.0
3.2 0.9 0.0
3.6 0.9 0.0
4.0 0.9 0.0
4.4 0.9 0.0
4.800000000000001 0.9 0.0
5.2 0.9 0.0
5.6000000000000005 0.9 0.0
6.0 0.9 0.0
6.4 0.9 0.0
6.800000000000001 0.9 0.0
7.2 0.9 0.0
7.6000000000000005 0.9 0.0
8.0 0.9 0.0
8.4 0.9 0.0
8.8 0.9 0.0
9.200000000000001 0.9 0.0
9.600000000000001 0.9 0.0
10.0 0.9 0.0
10.4 0.9 0.0
10.8 0.9 0.0
11.200000000000001 0.9 0.0
11.600000000000001 0.9 0.0
12.0 0.9 0.0
12.4 0.9 0.0
12.8 0.9 0.0
13.200000000000001 0.9 0.0
13.600000000000001 0.9 0.0
14.0 0.9 0.0
14.4 0.9 0.0
14.8 0.9 0.0
15.200000000000001 0.9 0.0
15.600000000000001 0.9 0.0
16.0 0.9 0.0
0.0 1.0 0.0
0.4 1.0 0.0
0.8 1.0 0.0
1.2000000000000002 1.0 0.0
1.6 1.0 0.0
2.0 1.0 0.0
2.4000000000000004 1.0 0.0
2.8000000000000003 1.0 0.0
3.2 1.0 0.0
3.6 1.0 0.0
4.0 1.0 0.0
4.4 1.0 0.0
4.800000000000001 1.0 0.0
5.2 1.0 0.0
5.6000000000000005 1.0 0.0
6.0 1.0 0.0
6.4 1.0 0.0
6.800000000000001 1.0 0.0
7.2 1.0 0.0
7.6000000000000005 1.0 0.0
8.0 1.0 0.0
8.4 1.0 0.0
8.8 1.0 0.0
9.200000000000001 1.0 0.0
9.600000000000001 1.0 0.0
10.0 1.0 0.0
10.4 1.0 0.0
10.8 1.0 0.0
11.200000000000001 1.0 0.0
11.600000000000001 1.0 0.0
12.0 1.0 0.0
12.4 1.0 0.0
12.8 1.0 0.0
13.200000000000001 1.0 0.0
13.600000000000001 1.0 0.0
14.0 1.0 0.0
14.4 1.0 0.0
14.8 1.0 0.0
15.200000000000001 1.0 0.0
15.600000000000001 1.0 0.0
16.0 1.0 0.0
0.0 1.1 0.0
0.4 1.1 0.0
0.8 1.1 0.0
1.2000000000000002 1.1 0.0
1.6 1.1 0.0
[...]
POINT_DATA 861
SCALARS Disp float 2
LOOKUP_TABLE default
0.0 0.0
0.006079005665879225 -0.2785613691553313
0.007477289206929957 -0.547528474353224
0.008277332845856317 -0.815371321700909
0.009331794806940297 -1.0828243569149685
0.011091746117034814 -1.3494331909265966
0.01425181792015229 -1.614588478683113
0.019670844638604752 -1.8775210437401555
0.028362568808061133 -2.137265618755978
0.04143150259771906 -2.392557135298775
0.05997470710308005 -2.641683917552378
0.08501397401134518 -2.8824082348244735
0.11746450379828677 -3.112007264226425
0.15812508218566204 -3.327401747443721
0.20767154278560657 -3.5252460219630293
0.2665871355450296 -3.7020029870359337
0.33504059354648363 -3.8540432536971405
0.4127434218968728 -3.9778025311085075
0.4988318218867213 -4.070027363142485
0.5918231977683209 -4.128026349758599
0.6893720691384551 -4.149988320666229
0.7869209405085833 -4.128026349758468
0.879912316390164 -4.07002736314222
0.9660007163799778 -3.9778025311081233
1.0437035447303233 -3.854043253696659
1.112157002731731 -3.7020029870353834
1.1710725954911057 -3.525246021962426
1.2206190560910022 -3.327401747443083
1.2612796344783301 -3.1120072642257712
1.293730164265227 -2.882408234823825
1.3187694311734517 -2.641683917551752
1.3373126356787788 -2.3925571352981874
1.3503815694684111 -2.1372656187554355
1.3590732936378485 -1.877521043739666
1.3644923203562882 -1.6145884786826823
1.367652392159398 -1.3494331909262318
1.3694123434694887 -1.0828243569146703
1.370466805430572 -0.8153713217006812
1.3712668490694981 -0.5475284743530648
1.3726651326105472 -0.278561369155244
1.3787441382764232 0.0
0.06948165858859581 -0.002511777529210664
0.07376127368366737 -0.27885310700142
0.07448467756881767 -0.5475916097257117
0.07519156084308326 -0.8154633232002731
0.07611186388591856 -1.0829815696863083
0.07760217257447559 -1.3497915595123293
0.08031538363390944 -1.6153411575986978
0.08506218863198102 -1.8788993852942177
0.0927938870046862 -2.139528348687776
0.10451825762385777 -2.3959677753567847
0.12121397210913805 -2.646492109081504
0.14377780134305354 -2.888840755254415
0.17301851086139794 -3.12026676443435
0.20966156937661123 -3.337665574739898
0.2543233907251614 -3.5376579649754545
0.3074547680053383 -3.7166502062315847
0.3692331504750564 -3.870923430492021
0.43943591385576636 -3.9967911377072785
0.5173227478606839 -4.090851316896401
0.6014740635348613 -4.150236028679722
0.6893720691384391 -4.172773155852425
0.7772700747420107 -4.150236028679588
0.8614213904161705 -4.09085131689613
0.9393082244210578 -3.996791137706885
1.0095109878017297 -3.870923430491529
1.0712893702714064 -3.716650206231023
1.1244207475515398 -3.5376579649748403
1.1690825689000466 -3.3376655747392476
1.2057256274152175 -3.1202667644336852
1.2349663369335215 -2.888840755253757
1.2575301661674005 -2.64649210908087
1.2742258806526503 -2.39596777535619
1.2859502512717984 -2.1395283486872283
1.2936819496444865 -1.8788993852937246
1.2984287546425464 -1.6153411575982648
1.3011419657019736 -1.3497915595119634
1.3026322743905276 -1.08298156968601
1.3035525774333625 -0.8154633232000452
1.3042594607076279 -0.5475916097255525
1.304982864592778 -0.27885310700133226
1.3092624796878438 -0.0025117775292081684
0.13794674232468362 -0.0045133703395522865
0.1410992929774712 -0.27899898441633053
0.14151173912843112 -0.5476233266044658
0.14208752085160148 -0.8155440827967756
0.1428844500051214 -1.0831057966481406
0.14413234841610456 -1.3500750986529153
0.1464103320349032 -1.6159655213286963
0.15048794113375497 -1.8800837195561433
0.1572424523330795 -2.141512531689344
0.1675878713810208 -2.3989893330226995
0.1823902873788906 -2.650771024096024
0.20243175143840872 -2.894575032049335
0.2284165378523869 -3.12763586505544
0.26098526163783325 -3.346830422487498
0.300699431471756 -3.548750582895828
0.3479798149443166 -3.7297547585583195
0.4030242229794346 -3.8860482898019653
0.4656918564062723 -4.013836692708608
0.5353509866066561 -4.1095737924863505
0.6106458271734984 -4.170175701089486
0.6893720691384233 -4.19322807978342
0.7680983111033428 -4.1701757010893505
0.8433931516701684 -4.109573792486073
0.9130522818705262 -4.013836692708207
0.9757199152973306 -3.8860482898014643
1.0307643233324117 -3.729754758557748
1.078044706804934 -3.5487505828952037
1.1177588766388178 -3.3468304224868377
1.1503276004242264 -3.1276358650547658
1.176312386838169 -2.8945750320486674
1.1963538508976546 -2.6507710240953823
1.2111562668954974 -2.3989893330220986
1.2215016859434176 -2.1415125316887917
1.2282561971427266 -1.880083719555647
1.2323338062415679 -1.6159655213282613
1.234611789860361 -1.3500750986525485
1.2358596882713422 -1.0831057966478417
1.2366566174248617 -0.8155440827965476
1.2372323991480318 -0.5476233266043067
1.2376448452989919 -0.2789989844162424
1.240797395951774 -0.004513370339547007
0.2058735849783853 -0.006125387921181311
0.20826559267129272 -0.27909856055614357
0.2085164035171033 -0.5476405960571012
0.2089663869400278 -0.8156087942978161
0.20964478147886048 -1.0832057104144512
0.21067911876115586 -1.3502924435314463
0.2125471800665947 -1.6164659737280351
0.21596400169451635 -1.8810749730818515
0.22173547081228773 -2.143214271843617
0.23068207624840978 -2.401614690734254
0.24356237132622843 -2.6545118752988075
0.2610480665689692 -2.8996024562094473
0.28374314854882626 -3.134105535542922
0.3122023031844657 -3.3548847732654146
0.3469218405528889 -3.558510650037413
0.3882996491507281 -3.7413032725234583
0.4365580957190483 -3.8994064041353953
0.4916362085059636 -4.0289307993689585
0.5530203760066867 -4.126186205901782
0.619552967613349 -4.187897249891896
0.6893720691384082 -4.21146993636804
0.7591911706634622 -4.187897249891757
0.8257237622701096 -4.126186205901499
0.8871079297708097 -4.02893079936855
0.9421860425576959 -3.8994064041348855
0.990444489125984 -3.7413032725228788
1.0318222977237894 -3.5585106500367796
1.0665418350921785 -3.3548847732647458
1.095000989727785 -3.1341055355422394
1.117696071707611 -2.8996024562087728
1.1351817669503235 -2.6545118752981587
1.1480620620281183 -2.4016146907336475
1.1570086674642215 -2.1432142718430605
1.1627801365819794 -1.8810749730813525
1.166196958209892 -1.6164659737275981
1.1680650195153264 -1.3502924435310788
1.1690993567976202 -1.0832057104141521
1.169777751336453 -0.815608794297588
1.1702277347593772 -0.5476405960569422
1.1704785456051878 -0.27909856055605503
1.17287055329809 -0.006125387921173443
0.273494190822343 -0.0074305284293513865
0.2753154337515723 -0.2791756011013184
0.27547877108442737 -0.5476504743765243
0.2758232448771562 -0.8156588063743087
0.2763889455061325 -1.083286081289894
0.27723491257959854 -1.350456065530275
0.27873318954920023 -1.6168510617677336
0.28150517648722473 -1.881876199302421
0.28630041038121695 -2.1446334931980977
0.2938425260653323 -2.4038407059153823
0.30478716823059415 -2.657710210240289
0.31970017929676786 -2.90391769724306
0.33908477164684914 -3.1396701523413375
0.36341133623557526 -3.3618224552982574
0.39311486686173086 -3.566929957610311
0.42855724466041184 -3.7512855817482755
0.46998059236426726 -3.9109855380249234
0.5174063321909215 -4.042059398814404
0.5704792306088875 -4.140690444569087
0.6283029568148079 -4.2034398848921155
0.6893720691383933 -4.227562106894804
0.7504411814619739 -4.203439884891973
0.8082649076678812 -4.1406904445688
0.8613378060858267 -4.042059398813989
0.9087635459124562 -3.9109855380244065
0.9501868936162837 -3.751285581747688
0.9856292714149355 -3.5669299576096694
1.0153328020410617 -3.361822455297581
1.0396593666297598 -3.1396701523406474
1.0590439589798142 -2.9039176972423784
1.073956970045964 -2.657710210239635
1.0849016122112054 -2.403840705914771
1.0924437278953045 -2.1446334931975373
1.0972389617892853 -1.8818761993019193
1.1000109487273024 -1.6168510617672958
1.1015092256969006 -1.3504560655299072
1.1023551927703656 -1.0832860812895946
1.1029208933993417 -0.8156588063740806
1.1032653671920707 -0.5476504743763654
1.1034287045249256 -0.2791756011012296
1.1052499474541506 -0.007430528429341215
0.34091292671738654 -0.008481042412401035
0.34228423714159534 -0.2792382170755236
0.34239695561582323 -0.5476576675554023
0.3426548037367512 -0.815695908526365
0.3431120124225178 -1.0833506792825762
0.34379362976958705 -1.3505774646803335
0.3449615632529678 -1.617134747013269
0.3471326818584445 -1.8824938872341965
0.35096477302178664 -2.1457733297575268
0.3571107983373149 -2.40566837844271
0.36612139453379916 -2.660365434709379
0.3784593072499793 -2.9075196454160714
0.3945301358720507 -3.144328022883378
0.41471876103542205 -3.367641241435488
0.43939554126991687 -3.574006021334421
0.4688915043929477 -3.7596961060067207
0.5034487640288209 -3.920773955159972
0.5431619546193586 -4.053208609260999
0.5878688369077896 -4.153083955910058
0.636982208017863 -4.216823671629397
0.6893720691383782 -4.24154223035223
0.7417619302588893 -4.216823671629254
0.7908753013689507 -4.153083955909767
0.8355821836573648 -4.053208609260579
0.8752953742478815 -3.92077395515945
0.909852633883731 -3.7596961060061265
0.9393485970067372 -3.5740060213337737
0.9640253772412076 -3.367641241434805
0.9842140024045556 -3.1443280228826818
1.0002848310266048 -2.907519645415384
1.012622743742765 -2.6603654347087202
1.0216333399392326 -2.4056683784420945
1.0277793652547471 -2.1457733297569628
1.0316114564180798 -1.882493887233693
1.033782575023551 -1.6171347470128299
1.034950508506929 -1.3505774646799653
1.0356321258539978 -1.083350679282277
1.0360893345397642 -0.8156959085261368
1.0363471826606923 -0.5476576675552434
1.03645990113492 -0.27923821707543445
1.0378312115591253 -0.008481042412388944
0.408184153305387 -0.009316859900629271
0.40919616064919884 -0.27928962921765044
0.40927637796848576 -0.5476645406294307
0.4094608496552264 -0.8157216090462329
0.4098119938940127 -1.0834017716788058
0.4103471969299433 -1.3506666264510132
0.41122347492222805 -1.617333937693771
0.41284568684683537 -1.8829431590071173
0.41575955543231374 -2.1466408255827605
0.42052921134898447 -2.4071025628198983
0.4276224864590528 -2.6624813037562487
0.43739873949923747 -2.9104113717436135
0.4501676561248043 -3.1480820399369236
0.46622984322222405 -3.372343717465019
0.48589088818559795 -3.5797403053024537
0.5094412723076411 -3.766534313900508
0.5371195991592252 -3.9287648491915683
0.5690777025608263 -4.062364412610617
0.6053418637947744 -4.163354448315927
0.6456763341521806 -4.22804954577265
0.689372069138363 -4.253426815670553
0.7330678041245418 -4.228049545772503
0.7734022744819381 -4.163354448315632
0.8096664357158719 -4.062364412610193
0.8416245391174556 -3.9287648491910416
0.8693028659690208 -3.766534313899908
0.8928532500910439 -3.5797403053018013
0.9125142950543984 -3.372343717464331
0.9285764821517998 -3.148082039936223
0.9413453987773489 -2.9104113717429216
0.9511216518175176 -2.6624813037555857
0.9582149269275725 -2.4071025628192797
0.9629845828442326 -2.1466408255821943
0.9658984514297038 -1.8829431590066124
0.9675206633543069 -1.617333937693331
0.9683969413465897 -1.3506666264506448
0.9689321443825201 -1.0834017716785065
0.9692832886213063 -0.8157216090460048
0.9694677603080468 -0.5476645406292716
0.9695479776273338 -0.2792896292175611
0.9705599849711429 -0.009316859900615582
0.47534394670679314 -0.00997019005520497
0.47606920447381607 -0.27933227085978335
0.47612485760874834 -0.5476715884415572
0.4762433856747826 -0.8157371749602553
0.4764899525579064 -1.0834397323014247
0.4768870796531374 -1.3507314412315758
0.4775131681216317 -1.6174653818752502
0.47864084624851244 -1.88324467747841
0.48070013472383455 -2.14725197300348
0.4841433503285215 -2.408153034748768
0.48935006396663355 -2.6640658713883805
0.4965918508444206 -2.9126005376758273
0.506088273910436 -3.150940129395814
0.5180538979232491 -3.375937565747835
0.5327243175420223 -3.584139623166182
0.5503500579786182 -3.771804750464655
0.5711595915044203 -3.9349574623268464
0.5953351798995661 -4.069514866614574
0.6230647982798933 -4.171479261481724
0.6544818034120932 -4.237097514958749
0.6893720691383473 -4.263211060928547
0.7242623348645989 -4.237097514958601
0.7556793399967909 -4.171479261481427
0.7834089583771068 -4.0695148666141465
0.8075845467722391 -3.9349574623263157
0.8283940802980265 -3.7718047504640504
0.8460198207346071 -3.5841396231655254
0.8606902403533663 -3.3759375657471438
0.8726558643661659 -3.150940129395109
0.8821522874321683 -2.9126005376751323
0.8893940743099434 -2.664065871387715
0.8946007879480454 -2.408153034748146
0.8980440035527247 -2.1472519730029123
0.9001032920280418 -1.8832446774779037
0.9012309701549196 -1.61746538187481
0.9018570586234128 -1.3507314412312075
0.9022541857186437 -1.0834397323011256
0.9025007526017674 -0.8157371749600272
0.9026192806678016 -0.5476715884413982
0.9026749338027338 -0.279332270859694
0.9034001915697548 -0.009970190055190006
0.5424146431759549 -0.01047114061761381
0.5429199572290689 -0.27936834239504693
0.5429496173757261 -0.5476779774880463
0.5430057692704953 -0.8157436082717087
0.543150054691212 -1.083463938164246
0.5434083269803213 -1.3507764064241645
0.5438149063447955 -1.6175467679012543
0.5445130758402563 -1.8834236432640428
0.5457930575316396 -2.1476319192469746
0.5479855886213613 -2.4088391013007584
0.5513647660222093 -2.6651334211831155
0.5561188664335125 -2.9141004927004333
0.5623859641288639 -3.152916021126454
0.5703015498085814 -3.3784367637600616
0.580027191983682 -3.5872164576236187
0.5917618179730085 -3.7755177906348285
0.6057275026875204 -3.939359669716436
0.6221347659398758 -4.074654181307488
0.6412414759201196 -4.177427150896309
0.6635203361122416 -4.243923685403116
0.689372069138331 -4.2708661568143516
0.7152238021644189 -4.243923685402967
0.7375026623565354 -4.177427150896009
0.7566093723367715 -4.074654181307057
0.773016635589117 -3.939359669715903
0.7869823203036188 -3.775517790634222
0.7987169462929354 -3.587216457622958
0.8084425884680271 -3.378436763759367
0.816358174147736 -3.1529160211257468
0.8226252718430792 -2.9141004926997356
0.8273793722543747 -2.6651334211824476
0.8307585496552163 -2.408839101300135
0.832951080744933 -2.1476319192464057
0.8342310624363134 -1.8834236432635358
0.8349292319317725 -1.6175467679008138
0.8353358112962462 -1.350776406423796
0.8355940835853554 -1.0834639381639468
0.8357383690060721 -0.8157436082714804
0.8357945209008412 -0.5476779774878872
0.8358241810474983 -0.2793683423949574
0.836329495100611 -0.010471140617597874
0.6094123935001663 -0.010849697592449286
0.6097587333504942 -0.27940058872545864
0.6097574169230577 -0.5476818773745089
0.6097521275974386 -0.8157416573021298
0.609796917786631 -1.0834740627943575
0.6099125387510923 -1.3508020121202258
0.6101122879002917 -1.6175919743850509
0.6104449311508765 -1.8835108015515056
0.6110366997846667 -2.147817407097014
0.6120769216439725 -2.4091938466112266
0.6137157220008579 -2.665711093828654
0.616054741386686 -2.9149346964814615
0.6191531419783453 -3.15403210516505
0.6230771493075148 -3.3798643802044417
0.6279179186485536 -3.588992927631961
0.6338103665525769 -3.7776913700606904
0.6409555761800737 -3.9419869600670276
0.6496175182242491 -4.0777942358610755
0.6601026324222257 -4.181172118982124
0.6729783804444304 -4.248455643951352
0.6893720691383145 -4.2763292058386035
0.7057657578321976 -4.248455643951202
0.7186415058543999 -4.181172118981823
0.7291266200523715 -4.077794235860643
0.7377885620965412 -3.9419869600664916
0.7449337717240332 -3.777691370060081
0.7508262196280517 -3.5889929276312995
0.7556669889690871 -3.3798643802037462
0.7595909962982531 -3.154032105164341
0.7626893968899088 -2.914934696480762
0.7650284162757336 -2.665711093827985
0.766667216632616 -2.409193846610602
0.7677074384919201 -2.147817407096445
0.768299207125709 -1.8835108015509983
0.7686318503762931 -1.6175919743846106
0.7688315995254926 -1.3508020121198572
0.7689472204899538 -1.0834740627940582
0.7689920106791462 -0.8157416573019015
0.7689867213535269 -0.5476818773743496
0.7689854049260902 -0.2794005887253691
0.7693317447764175 -0.010849697592432641
0.6763548451720774 -0.011131978357406078
0.676588913311401 -0.27943216712735813
0.6765533254693369 -0.5476813004610682
0.6764870717466633 -0.8157317829835794
0.676434872932715 -1.083470181233607
0.6764080048492839 -1.3508074285739868
0.6763975201285409 -1.6176061438096345
0.6763936791809501 -1.8835364928604754
0.6763921537693327 -2.1478653858319774
0.6763920075979801 -2.4092830877380487
0.6763921063443281 -2.66585934419857
0.6763904087331257 -2.915157193945723
0.676380651095945 -3.154339947087756
0.676360621128475 -3.380270131105738
0.6763485227569409 -3.5895166225682336
0.6764179801465379 -3.778367667582103
0.6767443144982968 -3.942874084563386
0.6776528633869884 -4.078974930909033
0.6795907036254012 -4.182744224028147
0.6830566631257081 -4.250622352254943
0.6893720691382972 -4.279492684584316
0.6956874751508867 -4.250622352254793
0.6991534346511925 -4.182744224027845
0.7010912748896041 -4.078974930908599
0.7019998237782953 -3.9428740845628494
0.7023261581300553 -3.7783676675814934
0.702395615519653 -3.589516622567572
0.7023835171481202 -3.3802701311050423
0.7023634871806519 -3.1543399470870477
0.7023537295434727 -2.915157193945023
0.7023520319322717 -2.6658593441979006
0.7023521306786205 -2.4092830877374243
0.7023519845072687 -2.147865385831408
0.7023504590956515 -1.8835364928599683
0.7023466181480608 -1.617606143809194
0.702336133427318 -1.3508074285736185
0.702309265343887 -1.0834701812333078
0.7022570665299388 -0.815731782983351
0.7021908128072651 -0.5476813004609088
0.7021552249652009 -0.2794321671272687
0.7023892931045241 -0.011131978357388932
0.7432532667439683 -0.011343690809319159
0.7434094577907785 -0.27946396952810354
0.7433418285699155 -0.5476754381376892
0.7432157991771887 -0.8157141545647403
0.7430692991147732 -1.0834526750561306
0.742902137894433 -1.350792395315198
0.7426819208856169 -1.6175894388730447
0.7423412820911461 -1.8835099930808517
0.7417470542413113 -2.1478171882711172
0.7407070097248325 -2.4091938499937453
0.7390686467341593 -2.665710921326667
0.7367246854452324 -2.914932067674952
0.7336060433672569 -3.154024868224365
0.7296433798907563 -3.379854840660303
0.7247833167320015 -3.5889997310324255
0.7190362541630511 -3.7777684061410444
0.7125360243686358 -3.9422453291595163
0.705602470502209 -4.078413910968429
0.6987289208095461 -4.182352552170342
0.6926263861898768 -4.250538942601244
0.6893720691382798 -4.280449040205048
0.6861177520866814 -4.250538942601093
0.6800152174670124 -4.18235255217004
0.6731416677743537 -4.0784139109679955
0.666208113907933 -3.9422453291589807
0.6597078841135249 -3.777768406140436
0.6539608215445806 -3.5889997310317643
0.649100758385832 -3.3798548406596085
0.6451380949093379 -3.154024868223657
0.6420194528313694 -2.9149320676742536
0.6396754915424485 -2.665710921325998
0.6380371285517802 -2.409193849993122
0.6369970840353045 -2.147817188270548
0.6364028561854715 -1.8835099930803445
0.6360622173910017 -1.6175894388726044
0.6358420003821861 -1.3507923953148295
0.6356748391618462 -1.0834526750558313
0.6355283390994306 -0.8157141545645121
0.6354023097067039 -0.5476754381375297
0.6353346804858411 -0.27946396952801417
0.635490871532651 -0.011343690809301745
0.8101189081693855 -0.011504837366736576
0.8102228894219936 -0.2794943749078069
0.8101267231105228 -0.547664640944106
0.8099437489029336 -0.8156889162011676
0.8097063205739936 -1.0834221507246662
0.809402588957151 -1.3507573648729523
0.8089758823817662 -1.6175414681632947
0.8082704972437672 -1.8834218217975582
0.8069897148806217 -2.147631584977435
0.8047985093646498 -2.4088392642683765
0.801419060931165 -2.665132660641851
0.7966591947317686 -2.914094853871702
0.7903743557097304 -3.152901483276058
0.7824273330187076 -3.378418406352791
0.7726921129291027 -3.587232233248515
0.7611063238294054 -3.7756757385256914
0.7477565612877424 -3.9398757881183557
0.7329432655383609 -4.075868460705393
0.7172475244145149 -4.179790523783908
0.7018876449379527 -4.248322764118548
0.689372069138263 -4.2793751718141655
0.6768564933385723 -4.248322764118397
0.6614966138620129 -4.179790523783608
0.6458008727381735 -4.075868460704961