# vtk DataFile Version 3.0
Some data
ASCII
DATASET UNSTRUCTURED_GRID
POINTS 861 float
0.0 0.0 0.0
0.4 0.0 0.0
0.8 0.0 0.0
1.2000000000000002 0.0 0.0
1.6 0.0 0.0
2.0 0.0 0.0
2.4000000000000004 0.0 0.0
2.8000000000000003 0.0 0.0
3.2 0.0 0.0
3.6 0.0 0.0
4.0 0.0 0.0
4.4 0.0 0.0
4.800000000000001 0.0 0.0
5.2 0.0 0.0
5.6000000000000005 0.0 0.0
6.0 0.0 0.0
6.4 0.0 0.0
6.800000000000001 0.0 0.0
7.2 0.0 0.0
7.6000000000000005 0.0 0.0
8.0 0.0 0.0
8.4 0.0 0.0
8.8 0.0 0.0
9.200000000000001 0.0 0.0
9.600000000000001 0.0 0.0
10.0 0.0 0.0
10.4 0.0 0.0
10.8 0.0 0.0
11.200000000000001 0.0 0.0
11.600000000000001 0.0 0.0
12.0 0.0 0.0
12.4 0.0 0.0
12.8 0.0 0.0
13.200000000000001 0.0 0.0
13.600000000000001 0.0 0.0
14.0 0.0 0.0
14.4 0.0 0.0
14.8 0.0 0.0
15.200000000000001 0.0 0.0
15.600000000000001 0.0 0.0
16.0 0.0 0.0
0.0 0.1 0.0
0.4 0.1 0.0
0.8 0.1 0.0
1.2000000000000002 0.1 0.0
1.6 0.1 0.0
2.0 0.1 0.0
2.4000000000000004 0.1 0.0
2.8000000000000003 0.1 0.0
3.2 0.1 0.0
3.6 0.1 0.0
4.0 0.1 0.0
4.4 0.1 0.0
4.800000000000001 0.1 0.0
5.2 0.1 0.0
5.6000000000000005 0.1 0.0
6.0 0.1 0.0
6.4 0.1 0.0
6.800000000000001 0.1 0.0
7.2 0.1 0.0
7.6000000000000005 0.1 0.0
8.0 0.1 0.0
8.4 0.1 0.0
8.8 0.1 0.0
9.200000000000001 0.1 0.0
9.600000000000001 0.1 0.0
10.0 0.1 0.0
10.4 0.1 0.0
10.8 0.1 0.0
11.200000000000001 0.1 0.0
11.600000000000001 0.1 0.0
12.0 0.1 0.0
12.4 0.1 0.0
12.8 0.1 0.0
13.200000000000001 0.1 0.0
13.600000000000001 0.1 0.0
14.0 0.1 0.0
14.4 0.1 0.0
14.8 0.1 0.0
15.200000000000001 0.1 0.0
15.600000000000001 0.1 0.0
16.0 0.1 0.0
0.0 0.2 0.0
0.4 0.2 0.0
0.8 0.2 0.0
1.2000000000000002 0.2 0.0
1.6 0.2 0.0
2.0 0.2 0.0
2.4000000000000004 0.2 0.0
2.8000000000000003 0.2 0.0
3.2 0.2 0.0
3.6 0.2 0.0
4.0 0.2 0.0
4.4 0.2 0.0
4.800000000000001 0.2 0.0
5.2 0.2 0.0
5.6000000000000005 0.2 0.0
6.0 0.2 0.0
6.4 0.2 0.0
6.800000000000001 0.2 0.0
7.2 0.2 0.0
7.6000000000000005 0.2 0.0
8.0 0.2 0.0
8.4 0.2 0.0
8.8 0.2 0.0
9.200000000000001 0.2 0.0
9.600000000000001 0.2 0.0
10.0 0.2 0.0
10.4 0.2 0.0
10.8 0.2 0.0
11.200000000000001 0.2 0.0
11.600000000000001 0.2 0.0
12.0 0.2 0.0
12.4 0.2 0.0
12.8 0.2 0.0
13.200000000000001 0.2 0.0
13.600000000000001 0.2 0.0
14.0 0.2 0.0
14.4 0.2 0.0
14.8 0.2 0.0
15.200000000000001 0.2 0.0
15.600000000000001 0.2 0.0
16.0 0.2 0.0
0.0 0.30000000000000004 0.0
0.4 0.30000000000000004 0.0
0.8 0.30000000000000004 0.0
1.2000000000000002 0.30000000000000004 0.0
1.6 0.30000000000000004 0.0
2.0 0.30000000000000004 0.0
2.4000000000000004 0.30000000000000004 0.0
2.8000000000000003 0.30000000000000004 0.0
3.2 0.30000000000000004 0.0
3.6 0.30000000000000004 0.0
4.0 0.30000000000000004 0.0
4.4 0.30000000000000004 0.0
4.800000000000001 0.30000000000000004 0.0
5.2 0.30000000000000004 0.0
5.6000000000000005 0.30000000000000004 0.0
6.0 0.30000000000000004 0.0
6.4 0.30000000000000004 0.0
6.800000000000001 0.30000000000000004 0.0
7.2 0.30000000000000004 0.0
7.6000000000000005 0.30000000000000004 0.0
8.0 0.30000000000000004 0.0
8.4 0.30000000000000004 0.0
8.8 0.30000000000000004 0.0
9.200000000000001 0.30000000000000004 0.0
9.600000000000001 0.30000000000000004 0.0
10.0 0.30000000000000004 0.0
10.4 0.30000000000000004 0.0
10.8 0.30000000000000004 0.0
11.200000000000001 0.30000000000000004 0.0
11.600000000000001 0.30000000000000004 0.0
12.0 0.30000000000000004 0.0
12.4 0.30000000000000004 0.0
12.8 0.30000000000000004 0.0
13.200000000000001 0.30000000000000004 0.0
13.600000000000001 0.30000000000000004 0.0
14.0 0.30000000000000004 0.0
14.4 0.30000000000000004 0.0
14.8 0.30000000000000004 0.0
15.200000000000001 0.30000000000000004 0.0
15.600000000000001 0.30000000000000004 0.0
16.0 0.30000000000000004 0.0
0.0 0.4 0.0
0.4 0.4 0.0
0.8 0.4 0.0
1.2000000000000002 0.4 0.0
1.6 0.4 0.0
2.0 0.4 0.0
2.4000000000000004 0.4 0.0
2.8000000000000003 0.4 0.0
3.2 0.4 0.0
3.6 0.4 0.0
4.0 0.4 0.0
4.4 0.4 0.0
4.800000000000001 0.4 0.0
5.2 0.4 0.0
5.6000000000000005 0.4 0.0
6.0 0.4 0.0
6.4 0.4 0.0
6.800000000000001 0.4 0.0
7.2 0.4 0.0
7.6000000000000005 0.4 0.0
8.0 0.4 0.0
8.4 0.4 0.0
8.8 0.4 0.0
9.200000000000001 0.4 0.0
9.600000000000001 0.4 0.0
10.0 0.4 0.0
10.4 0.4 0.0
10.8 0.4 0.0
11.200000000000001 0.4 0.0
11.600000000000001 0.4 0.0
12.0 0.4 0.0
12.4 0.4 0.0
12.8 0.4 0.0
13.200000000000001 0.4 0.0
13.600000000000001 0.4 0.0
14.0 0.4 0.0
14.4 0.4 0.0
14.8 0.4 0.0
15.200000000000001 0.4 0.0
15.600000000000001 0.4 0.0
16.0 0.4 0.0
0.0 0.5 0.0
0.4 0.5 0.0
0.8 0.5 0.0
1.2000000000000002 0.5 0.0
1.6 0.5 0.0
2.0 0.5 0.0
2.4000000000000004 0.5 0.0
2.8000000000000003 0.5 0.0
3.2 0.5 0.0
3.6 0.5 0.0
4.0 0.5 0.0
4.4 0.5 0.0
4.800000000000001 0.5 0.0
5.2 0.5 0.0
5.6000000000000005 0.5 0.0
6.0 0.5 0.0
6.4 0.5 0.0
6.800000000000001 0.5 0.0
7.2 0.5 0.0
7.6000000000000005 0.5 0.0
8.0 0.5 0.0
8.4 0.5 0.0
8.8 0.5 0.0
9.200000000000001 0.5 0.0
9.600000000000001 0.5 0.0
10.0 0.5 0.0
10.4 0.5 0.0
10.8 0.5 0.0
11.200000000000001 0.5 0.0
11.600000000000001 0.5 0.0
12.0 0.5 0.0
12.4 0.5 0.0
12.8 0.5 0.0
13.200000000000001 0.5 0.0
13.600000000000001 0.5 0.0
14.0 0.5 0.0
14.4 0.5 0.0
14.8 0.5 0.0
15.200000000000001 0.5 0.0
15.600000000000001 0.5 0.0
16.0 0.5 0.0
0.0 0.6000000000000001 0.0
0.4 0.6000000000000001 0.0
0.8 0.6000000000000001 0.0
1.2000000000000002 0.6000000000000001 0.0
1.6 0.6000000000000001 0.0
2.0 0.6000000000000001 0.0
2.4000000000000004 0.6000000000000001 0.0
2.8000000000000003 0.6000000000000001 0.0
3.2 0.6000000000000001 0.0
3.6 0.6000000000000001 0.0
4.0 0.6000000000000001 0.0
4.4 0.6000000000000001 0.0
4.800000000000001 0.6000000000000001 0.0
5.2 0.6000000000000001 0.0
5.6000000000000005 0.6000000000000001 0.0
6.0 0.6000000000000001 0.0
6.4 0.6000000000000001 0.0
6.800000000000001 0.6000000000000001 0.0
7.2 0.6000000000000001 0.0
7.6000000000000005 0.6000000000000001 0.0
8.0 0.6000000000000001 0.0
8.4 0.6000000000000001 0.0
8.8 0.6000000000000001 0.0
9.200000000000001 0.6000000000000001 0.0
9.600000000000001 0.6000000000000001 0.0
10.0 0.6000000000000001 0.0
10.4 0.6000000000000001 0.0
10.8 0.6000000000000001 0.0
11.200000000000001 0.6000000000000001 0.0
11.600000000000001 0.6000000000000001 0.0
12.0 0.6000000000000001 0.0
12.4 0.6000000000000001 0.0
12.8 0.6000000000000001 0.0
13.200000000000001 0.6000000000000001 0.0
13.600000000000001 0.6000000000000001 0.0
14.0 0.6000000000000001 0.0
14.4 0.6000000000000001 0.0
14.8 0.6000000000000001 0.0
15.200000000000001 0.6000000000000001 0.0
15.600000000000001 0.6000000000000001 0.0
16.0 0.6000000000000001 0.0
0.0 0.7000000000000001 0.0
0.4 0.7000000000000001 0.0
0.8 0.7000000000000001 0.0
1.2000000000000002 0.7000000000000001 0.0
1.6 0.7000000000000001 0.0
2.0 0.7000000000000001 0.0
2.4000000000000004 0.7000000000000001 0.0
2.8000000000000003 0.7000000000000001 0.0
3.2 0.7000000000000001 0.0
3.6 0.7000000000000001 0.0
4.0 0.7000000000000001 0.0
4.4 0.7000000000000001 0.0
4.800000000000001 0.7000000000000001 0.0
5.2 0.7000000000000001 0.0
5.6000000000000005 0.7000000000000001 0.0
6.0 0.7000000000000001 0.0
6.4 0.7000000000000001 0.0
6.800000000000001 0.7000000000000001 0.0
7.2 0.7000000000000001 0.0
7.6000000000000005 0.7000000000000001 0.0
8.0 0.7000000000000001 0.0
8.4 0.7000000000000001 0.0
8.8 0.7000000000000001 0.0
9.200000000000001 0.7000000000000001 0.0
9.600000000000001 0.7000000000000001 0.0
10.0 0.7000000000000001 0.0
10.4 0.7000000000000001 0.0
10.8 0.7000000000000001 0.0
11.200000000000001 0.7000000000000001 0.0
11.600000000000001 0.7000000000000001 0.0
12.0 0.7000000000000001 0.0
12.4 0.7000000000000001 0.0
12.8 0.7000000000000001 0.0
13.200000000000001 0.7000000000000001 0.0
13.600000000000001 0.7000000000000001 0.0
14.0 0.7000000000000001 0.0
14.4 0.7000000000000001 0.0
14.8 0.7000000000000001 0.0
15.200000000000001 0.7000000000000001 0.0
15.600000000000001 0.7000000000000001 0.0
16.0 0.7000000000000001 0.0
0.0 0.8 0.0
0.4 0.8 0.0
0.8 0.8 0.0
1.2000000000000002 0.8 0.0
1.6 0.8 0.0
2.0 0.8 0.0
2.4000000000000004 0.8 0.0
2.8000000000000003 0.8 0.0
3.2 0.8 0.0
3.6 0.8 0.0
4.0 0.8 0.0
4.4 0.8 0.0
4.800000000000001 0.8 0.0
5.2 0.8 0.0
5.6000000000000005 0.8 0.0
6.0 0.8 0.0
6.4 0.8 0.0
6.800000000000001 0.8 0.0
7.2 0.8 0.0
7.6000000000000005 0.8 0.0
8.0 0.8 0.0
8.4 0.8 0.0
8.8 0.8 0.0
9.200000000000001 0.8 0.0
9.600000000000001 0.8 0.0
10.0 0.8 0.0
10.4 0.8 0.0
10.8 0.8 0.0
11.200000000000001 0.8 0.0
11.600000000000001 0.8 0.0
12.0 0.8 0.0
12.4 0.8 0.0
12.8 0.8 0.0
13.200000000000001 0.8 0.0
13.600000000000001 0.8 0.0
14.0 0.8 0.0
14.4 0.8 0.0
14.8 0.8 0.0
15.200000000000001 0.8 0.0
15.600000000000001 0.8 0.0
16.0 0.8 0.0
0.0 0.9 0.0
0.4 0.9 0.0
0.8 0.9 0.0
1.2000000000000002 0.9 0.0
1.6 0.9 0.0
2.0 0.9 0.0
2.4000000000000004 0.9 0.0
2.8000000000000003 0.9 0.0
3.2 0.9 0.0
3.6 0.9 0.0
4.0 0.9 0.0
4.4 0.9 0.0
4.800000000000001 0.9 0.0
5.2 0.9 0.0
5.6000000000000005 0.9 0.0
6.0 0.9 0.0
6.4 0.9 0.0
6.800000000000001 0.9 0.0
7.2 0.9 0.0
7.6000000000000005 0.9 0.0
8.0 0.9 0.0
8.4 0.9 0.0
8.8 0.9 0.0
9.200000000000001 0.9 0.0
9.600000000000001 0.9 0.0
10.0 0.9 0.0
10.4 0.9 0.0
10.8 0.9 0.0
11.200000000000001 0.9 0.0
11.600000000000001 0.9 0.0
12.0 0.9 0.0
12.4 0.9 0.0
12.8 0.9 0.0
13.200000000000001 0.9 0.0
13.600000000000001 0.9 0.0
14.0 0.9 0.0
14.4 0.9 0.0
14.8 0.9 0.0
15.200000000000001 0.9 0.0
15.600000000000001 0.9 0.0
16.0 0.9 0.0
0.0 1.0 0.0
0.4 1.0 0.0
0.8 1.0 0.0
1.2000000000000002 1.0 0.0
1.6 1.0 0.0
2.0 1.0 0.0
2.4000000000000004 1.0 0.0
2.8000000000000003 1.0 0.0
3.2 1.0 0.0
3.6 1.0 0.0
4.0 1.0 0.0
4.4 1.0 0.0
4.800000000000001 1.0 0.0
5.2 1.0 0.0
5.6000000000000005 1.0 0.0
6.0 1.0 0.0
6.4 1.0 0.0
6.800000000000001 1.0 0.0
7.2 1.0 0.0
7.6000000000000005 1.0 0.0
8.0 1.0 0.0
8.4 1.0 0.0
8.8 1.0 0.0
9.200000000000001 1.0 0.0
9.600000000000001 1.0 0.0
10.0 1.0 0.0
10.4 1.0 0.0
10.8 1.0 0.0
11.200000000000001 1.0 0.0
11.600000000000001 1.0 0.0
12.0 1.0 0.0
12.4 1.0 0.0
12.8 1.0 0.0
13.200000000000001 1.0 0.0
13.600000000000001 1.0 0.0
14.0 1.0 0.0
14.4 1.0 0.0
14.8 1.0 0.0
15.200000000000001 1.0 0.0
15.600000000000001 1.0 0.0
16.0 1.0 0.0
0.0 1.1 0.0
0.4 1.1 0.0
0.8 1.1 0.0
1.2000000000000002 1.1 0.0
1.6 1.1 0.0
[...]
POINT_DATA 861
SCALARS Disp float 2
LOOKUP_TABLE default
0.0 0.0
0.0011751390727664254 -0.021476545521941753
0.002093114311940227 -0.039623447548942696
0.0028294543628823972 -0.05745885675734805
0.003670693690426913 -0.07495123471208599
0.0046824330314042635 -0.092092803110925
0.005896932828573791 -0.10880164893876508
0.007327140431633086 -0.12498927138916202
0.008977294168439662 -0.140564217669526
0.010848376360262674 -0.15543615938560804
0.012940240106792967 -0.16951581416732925
0.015252546746544055 -0.1827147183835951
0.017785087860012882 -0.19494495242531365
0.020538094160651426 -0.20611901816677564
0.023512898802833474 -0.21614954841151637
0.026713152547768376 -0.2249481054629534
0.030146046666077193 -0.23242175244775945
0.033821103776165436 -0.23846614945730557
0.037741281582402454 -0.2429566373639067
0.04188107055688896 -0.2457471048913038
0.04615863360157387 -0.24669836589995328
0.050436196646258785 -0.24574710489130377
0.05457598562074527 -0.24295663736390666
0.05849616342698227 -0.23846614945730554
0.06217122053707051 -0.23242175244775942
0.06560411465537933 -0.2249481054629534
0.06880436840031426 -0.21614954841151637
0.0717791730424963 -0.2061190181667756
0.07453217934313483 -0.19494495242531368
0.07706472045660367 -0.1827147183835951
0.07937702709635475 -0.16951581416732928
0.08146889084288504 -0.15543615938560806
0.08333997303470807 -0.14056421766952598
0.08499012677151463 -0.12498927138916195
0.08642033437457393 -0.10880164893876501
0.08763483417174345 -0.09209280311092503
0.08864657351272082 -0.07495123471208599
0.08948781284026532 -0.05745885675734811
0.0902241528912075 -0.03962344754894267
0.09114212813038132 -0.021476545521941694
0.09231726720314773 0.0
0.005320030403859302 -0.0007297841146868718
0.006051792092650103 -0.02141965632556893
0.0065582800094304864 -0.03972649534827298
0.00724056896203632 -0.057530701496099915
0.007988738853319884 -0.0750458918698064
0.008902195562527034 -0.09220555266457128
0.009996755393541336 -0.10893623269896195
0.011284960438311013 -0.1251460248303591
0.012770559810074526 -0.14074343943269646
0.014454706028579697 -0.15563785636386573
0.01633744008917318 -0.1697399638713765
0.01841856634159759 -0.18296129216414425
0.02069797806106846 -0.19521394735424577
0.02317594896312566 -0.20641049723259644
0.025853666737922144 -0.21646372921695636
0.02873409979145651 -0.225285489877107
0.031822628681844274 -0.23278317274769408
0.035125336956886626 -0.23885235898187002
0.03864086870605314 -0.2433668401862113
0.04234262530529571 -0.24617623326418325
0.046158633601573865 -0.247134999047251
0.049974641897852036 -0.2461762332641832
0.05367639849709458 -0.24336684018621124
0.05719193024626109 -0.23885235898187
0.06049463852130344 -0.23278317274769408
0.06358316741169119 -0.22528548987710703
0.06646360046522558 -0.21646372921695636
0.06914131824002206 -0.2064104972325964
0.07161928914207925 -0.19521394735424577
0.07389870086155013 -0.18296129216414422
0.07597982711397454 -0.16973996387137655
0.07786256117456802 -0.1556378563638658
0.0795467073930732 -0.14074343943269643
0.0810323067648367 -0.12514602483035908
0.08232051180960638 -0.10893623269896187
0.08341507164062069 -0.09220555266457132
0.08432852834982783 -0.0750458918698064
0.08507669824111139 -0.05753070149609998
0.08575898719371725 -0.03972649534827295
0.08626547511049762 -0.02141965632556887
0.08699723679928842 -0.0007297841146868739
0.010277820849641078 -0.0013566487485526637
0.010802681816336208 -0.0213779339311342
0.011075270850714745 -0.03978327323256142
0.011621556316460693 -0.05760064445990807
0.01228498286232867 -0.07512784136676401
0.013093366667761699 -0.0923068137020152
0.014067158665258721 -0.10905656596432368
0.015212723295628793 -0.1252863488173364
0.016533669027805138 -0.14090382115300665
0.018030887159718872 -0.1558183405958852
0.01970452953516037 -0.16994052914007124
0.02155449805523579 -0.18318192127997093
0.023580752283250475 -0.19545463863269588
0.02578353170616144 -0.20667129527594286
0.028163735752511944 -0.2167447870456833
0.030723502123414376 -0.22558716600193862
0.0334665424238588 -0.23310607723641927
0.036396608385019714 -0.23919706303093358
0.039510871304688396 -0.24373273171810725
0.042785496676585495 -0.24655917339136302
0.04615863360157386 -0.24752495591443918
0.04953177052656224 -0.246559173391363
0.05280639589845933 -0.24373273171810714
0.055920658818128 -0.23919706303093358
0.058850724779288925 -0.23310607723641924
0.06159376507973333 -0.22558716600193865
0.06415353145063578 -0.21674478704568326
0.0665337354969863 -0.2066712952759428
0.06873651491989724 -0.1954546386326959
0.07076276914791194 -0.18318192127997093
0.07261273766798734 -0.16994052914007132
0.07428638004342884 -0.1558183405958852
0.0757835981753426 -0.14090382115300668
0.07710454390751892 -0.12528634881733636
0.078250108537889 -0.10905656596432359
0.07922390053538601 -0.09230681370201524
0.08003228434081903 -0.07512784136676402
0.08069571088668702 -0.05760064445990813
0.08124199635243298 -0.03978327323256139
0.08151458538681151 -0.021377933931134137
0.08203944635350664 -0.0013566487485526676
0.01502157698642982 -0.0018924254782753884
0.01543849315302209 -0.02136566631603735
0.015583033155854735 -0.039808416437338914
0.01598963423265632 -0.05765843388033682
0.016556916102987283 -0.07519915350993114
0.017260180258490347 -0.09239539725391338
0.018111255023533588 -0.10916270426652291
0.019113889474946973 -0.1254101443843846
0.020270001170944664 -0.14104536798194398
0.021580287582398536 -0.15597761379168065
0.023044854659300007 -0.17011751585404652
0.024663675062040116 -0.18337660573154452
0.026436737992851962 -0.19566701275730555
0.02836419022592473 -0.2069013671159072
0.03044654843401748 -0.21699261874503184
0.03268505251435406 -0.22585296393549237
0.03508195218500885 -0.23339031999312584
0.03763966914777351 -0.2395004724496567
0.04035618954083765 -0.2440555177987571
0.0432131827827455 -0.2468986388779812
0.046158633601573865 -0.24787179915539964
0.049104084420402226 -0.24689863887798114
0.05196107766231007 -0.244055517798757
0.05467759805537421 -0.23950047244965672
0.057235315018138874 -0.23339031999312587
0.059632214688793664 -0.2258529639354924
0.06187071876913024 -0.2169926187450318
0.06395307697722301 -0.20690136711590715
0.06588052921029576 -0.19566701275730558
0.06765359214110761 -0.18337660573154455
0.06927241254384771 -0.17011751585404655
0.07073697962074918 -0.15597761379168068
0.07204726603220306 -0.14104536798194398
0.07320337772820074 -0.12541014438438455
0.07420601217961412 -0.10916270426652283
0.07505708694465736 -0.09239539725391342
0.07576035110016044 -0.07519915350993116
0.0763276329704914 -0.05765843388033688
0.07673423404729299 -0.03980841643733889
0.07687877405012562 -0.02136566631603729
0.0772956902167179 -0.0018924254782753938
0.019628571169003337 -0.0023487605462191533
0.0199804575268177 -0.021381345440063808
0.020056809691343276 -0.03981546790095472
0.020343362608753378 -0.05770114009383322
0.020808020570235793 -0.07525920198774386
0.021404965859757458 -0.09247124440779475
0.022132543494218334 -0.10925442741940564
0.02299178121460628 -0.1255173999533352
0.023982950803292546 -0.14116806036190666
0.02510626758677263 -0.15611567947716065
0.02636176388657839 -0.170270925761088
0.02774943393409265 -0.18354534429037317
0.029269271829761086 -0.19585105778053657
0.030921291741599678 -0.20710067851278724
0.0327055783255387 -0.21720715288153658
0.034622466859087625 -0.22608277789260117
0.036672962940211946 -0.23363584358842418
0.03885897687689648 -0.23976284710416348
0.041181065859171036 -0.24433626814384266
0.043628431925032504 -0.24719689316851878
0.04615863360157386 -0.2481784979919853
0.04868883527811522 -0.24719689316851876
0.05113620134397669 -0.2443362681438426
0.05345829032625125 -0.23976284710416346
0.055644304262935776 -0.23363584358842424
0.05769480034406008 -0.22608277789260117
0.05961168887760902 -0.21720715288153658
0.061395975461548055 -0.20710067851278718
0.06304799537338664 -0.19585105778053663
0.06456783326905507 -0.18354534429037317
0.06595550331656932 -0.17027092576108804
0.06721099961637508 -0.15611567947716065
0.06833431639985517 -0.14116806036190666
0.06932548598854144 -0.12551739995333516
0.07018472370892938 -0.10925442741940555
0.07091230134339024 -0.0924712444077948
0.07150924663291192 -0.07525920198774387
0.07197390459439434 -0.057701140093833286
0.07226045751180445 -0.03981546790095469
0.07233680967633002 -0.021381345440063745
0.07268869603414438 -0.002348760546219159
0.02414319284294913 -0.0027363629965232884
0.02444898051342345 -0.021418538143588396
0.024489314512155264 -0.03981379132336551
0.02467879737873859 -0.05772949875486307
0.025041091789676066 -0.07530726330320375
0.02553049773560933 -0.09253432651503807
0.02613424862399083 -0.10933163362079587
0.026849770561760154 -0.12560807811704378
0.02767588159849616 -0.14127189002884044
0.02861219061363121 -0.1562325348348757
0.029658604743105343 -0.17040075933897555
0.030815114689251463 -0.18368813458994396
0.032081697452092814 -0.1960067648245268
0.033458216386600834 -0.20726920809771301
0.034944315193253604 -0.21738835043473448
0.036539461804421206 -0.22627655900519217
0.03824360669235197 -0.23384265049678388
0.04005873264945879 -0.23998443514275228
0.041989233334808716 -0.2445758573318242
0.04403347550846009 -0.24745581111580867
0.04615863360157386 -0.24844760592424842
0.04828379169468763 -0.24745581111580864
0.05032803386833901 -0.2445758573318242
0.05225853455368894 -0.23998443514275225
0.05407366051079575 -0.2338426504967839
0.0557778053987265 -0.22627655900519217
0.05737295200989412 -0.21738835043473448
0.05885905081654689 -0.207269208097713
0.06023556975105491 -0.19600676482452684
0.06150215251389626 -0.18368813458994399
0.06265866246004237 -0.17040075933897558
0.0637050765895165 -0.1562325348348757
0.06464138560465156 -0.1412718900288404
0.06546749664138755 -0.12560807811704375
0.0661830185791569 -0.10933163362079577
0.06678676946753839 -0.09253432651503812
0.06727617541347165 -0.07530726330320374
0.06763846982440913 -0.05772949875486314
0.06782795269099245 -0.03981379132336548
0.06786828668972426 -0.021418538143588337
0.06817407436019858 -0.0027363629965232927
0.028593122758673532 -0.0030645445367899656
0.02886113923550749 -0.021470103496114792
0.02888153525604212 -0.03980896396021299
0.028993657646724368 -0.057745606676083285
0.0292580718078472 -0.07534316323984752
0.029639735979130145 -0.09258459199958652
0.0301195401963082 -0.10939429960173724
0.03069120294790474 -0.12568214972459796
0.031352155147767166 -0.14135684878655225
0.03210141462881495 -0.15632817611914884
0.03293872573283984 -0.1705070148549013
0.03386405946783334 -0.18380497409716345
0.03487736343075779 -0.19613412874313388
0.03597835065917309 -0.2074069480602696
0.037166251360620975 -0.2175362038026881
0.038439736799093516 -0.22643430828506644
0.03979783928888873 -0.23401078087179525
0.041242931558649144 -0.24016542874393965
0.04278405230765182 -0.24477492641002338
0.044430179261923844 -0.2476769228799611
0.04615863360157385 -0.24868139413791793
0.04788708794122387 -0.24767692287996107
0.04953321489549591 -0.24477492641002335
0.05107433564449857 -0.24016542874393965
0.05251942791425898 -0.23401078087179525
0.0538775304040542 -0.22643430828506647
0.05515101584252674 -0.21753620380268812
0.05633891654397463 -0.20740694806026955
0.05743990377238993 -0.1961341287431339
0.058453207735314386 -0.18380497409716345
0.05937854147030788 -0.17050701485490133
0.06021585257433276 -0.15632817611914884
0.06096511205538055 -0.14135684878655222
0.061626064255242974 -0.1256821497245979
0.06219772700683953 -0.10939429960173715
0.06267753122401758 -0.09258459199958656
0.06305919539530053 -0.07534316323984751
0.06332360955642335 -0.057745606676083354
0.0634357319471056 -0.039808963960212954
0.06345612796764022 -0.021470103496114737
0.06372414444447418 -0.0030645445367899695
0.03299686793596204 -0.003341133791163275
0.033230726991937715 -0.021529713793849787
0.03323818048977532 -0.03980383548653555
0.033287890041301 -0.05775174589396539
0.0334607113541536 -0.07536723924941197
0.03373562314342342 -0.0926220572368509
0.03409160993013743 -0.10944244052673387
0.03451939976918182 -0.12573960516346402
0.03501512885338859 -0.14142292882907512
0.03557729438547533 -0.15640259889867894
0.036205474975833485 -0.17058968916148182
0.03689961208264736 -0.18389586035050948
0.03765962088987013 -0.19623314839763698
0.03848508135838584 -0.20751390359740013
0.03937486926777048 -0.21765073447762248
0.0403269590912489 -0.22655607058924654
0.04133954380280101 -0.2341402978962643
0.04241542135534828 -0.24030593534527436
0.04356863293704304 -0.24493385362087788
0.0448201494714108 -0.2478614388471823
0.04615863360157386 -0.24888196323923203
0.04749711773173692 -0.2478614388471823
0.04874863426610468 -0.24493385362087786
0.049901845847799435 -0.2403059353452743
0.050977723400346696 -0.23414029789626434
0.051990308111898816 -0.22655607058924657
0.052942397935377236 -0.21765073447762254
0.05383218584476188 -0.20751390359740007
0.0546576463132776 -0.19623314839763698
0.055417655120500356 -0.1838958603505095
0.05611179222731424 -0.17058968916148184
0.056739972817672395 -0.1564025988986789
0.057302138349759134 -0.14142292882907512
0.05779786743396589 -0.125739605163464
0.05822565727301031 -0.10944244052673377
0.0585816440597243 -0.09262205723685095
0.05885655584899412 -0.07536723924941197
0.059029377161846724 -0.05775174589396545
0.059079086713372406 -0.03980383548653552
0.05908654021121001 -0.021529713793849728
0.05932039926718568 -0.0033411337911632803
0.03736758236426112 -0.0035726163749010276
0.03756888470852908 -0.021592274331988102
0.03756543634181562 -0.039799487695656076
0.03756326267793494 -0.057749879599570925
0.03765101871078885 -0.07538013831819282
0.037821078961861876 -0.09264685083437113
0.03805367344160843 -0.1094761006266179
0.03833767597826511 -0.12578045164222065
0.038668153909855146 -0.14147012509535675
0.039043182292116445 -0.1564557979961381
0.03946219979716212 -0.17064877822314684
0.03992511721667942 -0.18396079116482214
0.04043182147925323 -0.19630382638616795
0.040981790294705896 -0.20759009133199027
0.041573630473167054 -0.21773198952101958
0.042204750172966744 -0.22664192990452803
0.04287253631412267 -0.2342312815181206
0.04357996431912276 -0.24040596327457925
0.04434594961986168 -0.24505272799812935
0.04520481468055386 -0.24801025396411785
0.046158633601573865 -0.24905134822828606
0.04711245252259386 -0.24801025396411788
0.04797131758328604 -0.24505272799812933
0.048737302884024954 -0.2404059632745792
0.04944473088902505 -0.23423128151812064
0.05011251703018097 -0.22664192990452806
0.050743636729980654 -0.21773198952101963
0.05133547690844182 -0.20759009133199027
0.051885445723894495 -0.19630382638616795
0.05239214998646829 -0.18396079116482214
0.05285506740598559 -0.1706487782231469
0.053274084911031264 -0.1564557979961381
0.05364911329329257 -0.14147012509535675
0.0539795912248826 -0.1257804516422206
0.0542635937615393 -0.1094761006266178
0.054496188241285846 -0.09264685083437117
0.05466624849235887 -0.07538013831819285
0.05475400452521279 -0.05774987959957097
0.054751830861332104 -0.03979948769565604
0.054748382494618636 -0.021592274331988043
0.054949684838886605 -0.003572616374901033
0.04171514146699767 -0.003764371358673336
0.041884746842404674 -0.021653910186223594
0.04186988243495662 -0.03979594423455127
0.04182281431824924 -0.05774149823374175
0.041831443259241624 -0.07538262944963522
0.04189906728436614 -0.09265920577111061
0.04200896694402001 -0.10949535350013567
0.04214935014557257 -0.12580470854394912
0.04231457690439535 -0.141498435904354
0.042502428213025197 -0.15648776783902293
0.04271224661742827 -0.17068427738099018
0.04294391968927273 -0.18399976472575388
0.04319731568283187 -0.19634616838103017
0.043471850180146286 -0.207635536854604
0.043765966403445836 -0.2177800368166859
0.04407667226613122 -0.22669200567961378
0.04440056929616819 -0.2342838308510115
0.04474029871305558 -0.2404654220078606
0.04511895567667248 -0.2451313230223919
0.04558549688341033 -0.24812392774590658
0.046158633601573865 -0.24919162880750578
0.04673177031973739 -0.2481239277459066
0.04719831152647524 -0.2451313230223919
0.04757696849009214 -0.24046542200786056
0.04791669790697952 -0.2342838308510115
0.048240594937016504 -0.22669200567961384
0.048551300799701866 -0.2177800368166859
0.04884541702300143 -0.20763553685460404
0.049119951520315855 -0.19634616838103017
0.049373347513874975 -0.18399976472575388
0.04960502058571944 -0.17068427738099023
0.049814838990122526 -0.15648776783902296
0.05000269029875236 -0.141498435904354
0.05016791705757514 -0.1258047085439491
0.05030830025912771 -0.10949535350013558
0.05041819991878158 -0.09265920577111067
0.05048582394390609 -0.07538262944963522
0.05049445288489848 -0.057741498233741806
0.05044738476819109 -0.03979594423455123
0.05043252036074305 -0.02165391018622354
0.050602125736150055 -0.00376437135867334
0.04604732501546517 -0.003920928157157875
0.04618596103947363 -0.021711803630146756
0.046157990415629666 -0.039792651855292537
0.046070391666436915 -0.057727629979775
0.04600489711457568 -0.07537547460126513
0.04597266025890665 -0.09265942516639153
0.045960753444111206 -0.10950029947169823
0.04595774842433682 -0.1258124037166227
0.04595774205929246 -0.14150786224959863
0.045958379365421145 -0.1564985027954535
0.04595896079279531 -0.17069618156121777
0.04595936392117925 -0.1840127795359794
0.04595945153788041 -0.1963601822085716
0.04595862195679212 -0.2076502716296648
0.045955271465336685 -0.21779495896438966
0.045946213869289196 -0.2267064492190272
0.04592732712570776 -0.23429807490659624
0.045900195746497 -0.24048413914549915
0.04589070806005758 -0.24516907050844783
0.04596348492064132 -0.24820263283243757
0.046158633601573865 -0.24930505684977033
0.0463537822825064 -0.24820263283243754
0.04642655914309012 -0.24516907050844783
0.04641707145665072 -0.2404841391454991
0.04638994007743995 -0.23429807490659624
0.046371053333858527 -0.22670644921902722
0.046361995737811024 -0.2177949589643897
0.04635864524635559 -0.20765027162966482
0.046357815665267296 -0.1963601822085716
0.04635790328196846 -0.1840127795359794
0.0463583064103524 -0.1706961815612178
0.04635888783772657 -0.1564985027954535
0.04635952514385525 -0.14150786224959863
0.04635951877881089 -0.1258124037166227
0.046356513759036516 -0.10950029947169812
0.04634460694424107 -0.0926594251663916
0.04631237008857204 -0.07537547460126513
0.0462468755367108 -0.057727629979775055
0.04615927678751805 -0.0397926518552925
0.046131306163674085 -0.021711803630146697
0.04626994218768255 -0.003920928157157879
0.05037051098929216 -0.004046207389794025
0.05047906931938745 -0.021764000329492654
0.05043591305024957 -0.039788790676587235
0.05031031574074148 -0.05770891773817082
0.050174702284306864 -0.07535935508602669
0.05004507630665996 -0.09264784178404642
0.049912333548221666 -0.10949105726590008
0.04976620620290977 -0.12580357011011556
0.04960099261670613 -0.14149840659451005
0.049414380429879806 -0.15648799730982738
0.049205686465029826 -0.17068448547592743
0.04897479361292548 -0.18399983424954158
0.048721573798777625 -0.19634587678053342
0.048445453632012365 -0.2076343296096497
0.04814489948357056 -0.2177768457271071
0.04781677449372083 -0.22668543831813653
0.047456407427690916 -0.2342741902931476
0.047063505167665914 -0.24046189838348933
0.0466645133161482 -0.2451650386564662
0.04634012570403899 -0.24824606007771113
0.046158633601573865 -0.24939421416001895
0.045977141499108726 -0.2482460600777111
0.04565275388699951 -0.2451650386564662
0.0452537620354818 -0.2404618983834893
0.0448608597754568 -0.23427419029314758
0.044500492709426895 -0.22668543831813656
0.04417236771957716 -0.21777684572710707
0.04387181357113535 -0.20763432960964973
0.043595693404370084 -0.19634587678053342
0.043342473590222225 -0.18399983424954153
0.04311158073811788 -0.17068448547592746
0.04290288677326791 -0.15648799730982738
0.042716274586441595 -0.14149840659451005
0.042551061000237936 -0.12580357011011556
0.04240493365492606 -0.1094910572659