# vtk DataFile Version 3.0
Some data
ASCII
DATASET UNSTRUCTURED_GRID
POINTS 861 float
0.0 0.0 0.0
0.4 0.0 0.0
0.8 0.0 0.0
1.2000000000000002 0.0 0.0
1.6 0.0 0.0
2.0 0.0 0.0
2.4000000000000004 0.0 0.0
2.8000000000000003 0.0 0.0
3.2 0.0 0.0
3.6 0.0 0.0
4.0 0.0 0.0
4.4 0.0 0.0
4.800000000000001 0.0 0.0
5.2 0.0 0.0
5.6000000000000005 0.0 0.0
6.0 0.0 0.0
6.4 0.0 0.0
6.800000000000001 0.0 0.0
7.2 0.0 0.0
7.6000000000000005 0.0 0.0
8.0 0.0 0.0
8.4 0.0 0.0
8.8 0.0 0.0
9.200000000000001 0.0 0.0
9.600000000000001 0.0 0.0
10.0 0.0 0.0
10.4 0.0 0.0
10.8 0.0 0.0
11.200000000000001 0.0 0.0
11.600000000000001 0.0 0.0
12.0 0.0 0.0
12.4 0.0 0.0
12.8 0.0 0.0
13.200000000000001 0.0 0.0
13.600000000000001 0.0 0.0
14.0 0.0 0.0
14.4 0.0 0.0
14.8 0.0 0.0
15.200000000000001 0.0 0.0
15.600000000000001 0.0 0.0
16.0 0.0 0.0
0.0 0.1 0.0
0.4 0.1 0.0
0.8 0.1 0.0
1.2000000000000002 0.1 0.0
1.6 0.1 0.0
2.0 0.1 0.0
2.4000000000000004 0.1 0.0
2.8000000000000003 0.1 0.0
3.2 0.1 0.0
3.6 0.1 0.0
4.0 0.1 0.0
4.4 0.1 0.0
4.800000000000001 0.1 0.0
5.2 0.1 0.0
5.6000000000000005 0.1 0.0
6.0 0.1 0.0
6.4 0.1 0.0
6.800000000000001 0.1 0.0
7.2 0.1 0.0
7.6000000000000005 0.1 0.0
8.0 0.1 0.0
8.4 0.1 0.0
8.8 0.1 0.0
9.200000000000001 0.1 0.0
9.600000000000001 0.1 0.0
10.0 0.1 0.0
10.4 0.1 0.0
10.8 0.1 0.0
11.200000000000001 0.1 0.0
11.600000000000001 0.1 0.0
12.0 0.1 0.0
12.4 0.1 0.0
12.8 0.1 0.0
13.200000000000001 0.1 0.0
13.600000000000001 0.1 0.0
14.0 0.1 0.0
14.4 0.1 0.0
14.8 0.1 0.0
15.200000000000001 0.1 0.0
15.600000000000001 0.1 0.0
16.0 0.1 0.0
0.0 0.2 0.0
0.4 0.2 0.0
0.8 0.2 0.0
1.2000000000000002 0.2 0.0
1.6 0.2 0.0
2.0 0.2 0.0
2.4000000000000004 0.2 0.0
2.8000000000000003 0.2 0.0
3.2 0.2 0.0
3.6 0.2 0.0
4.0 0.2 0.0
4.4 0.2 0.0
4.800000000000001 0.2 0.0
5.2 0.2 0.0
5.6000000000000005 0.2 0.0
6.0 0.2 0.0
6.4 0.2 0.0
6.800000000000001 0.2 0.0
7.2 0.2 0.0
7.6000000000000005 0.2 0.0
8.0 0.2 0.0
8.4 0.2 0.0
8.8 0.2 0.0
9.200000000000001 0.2 0.0
9.600000000000001 0.2 0.0
10.0 0.2 0.0
10.4 0.2 0.0
10.8 0.2 0.0
11.200000000000001 0.2 0.0
11.600000000000001 0.2 0.0
12.0 0.2 0.0
12.4 0.2 0.0
12.8 0.2 0.0
13.200000000000001 0.2 0.0
13.600000000000001 0.2 0.0
14.0 0.2 0.0
14.4 0.2 0.0
14.8 0.2 0.0
15.200000000000001 0.2 0.0
15.600000000000001 0.2 0.0
16.0 0.2 0.0
0.0 0.30000000000000004 0.0
0.4 0.30000000000000004 0.0
0.8 0.30000000000000004 0.0
1.2000000000000002 0.30000000000000004 0.0
1.6 0.30000000000000004 0.0
2.0 0.30000000000000004 0.0
2.4000000000000004 0.30000000000000004 0.0
2.8000000000000003 0.30000000000000004 0.0
3.2 0.30000000000000004 0.0
3.6 0.30000000000000004 0.0
4.0 0.30000000000000004 0.0
4.4 0.30000000000000004 0.0
4.800000000000001 0.30000000000000004 0.0
5.2 0.30000000000000004 0.0
5.6000000000000005 0.30000000000000004 0.0
6.0 0.30000000000000004 0.0
6.4 0.30000000000000004 0.0
6.800000000000001 0.30000000000000004 0.0
7.2 0.30000000000000004 0.0
7.6000000000000005 0.30000000000000004 0.0
8.0 0.30000000000000004 0.0
8.4 0.30000000000000004 0.0
8.8 0.30000000000000004 0.0
9.200000000000001 0.30000000000000004 0.0
9.600000000000001 0.30000000000000004 0.0
10.0 0.30000000000000004 0.0
10.4 0.30000000000000004 0.0
10.8 0.30000000000000004 0.0
11.200000000000001 0.30000000000000004 0.0
11.600000000000001 0.30000000000000004 0.0
12.0 0.30000000000000004 0.0
12.4 0.30000000000000004 0.0
12.8 0.30000000000000004 0.0
13.200000000000001 0.30000000000000004 0.0
13.600000000000001 0.30000000000000004 0.0
14.0 0.30000000000000004 0.0
14.4 0.30000000000000004 0.0
14.8 0.30000000000000004 0.0
15.200000000000001 0.30000000000000004 0.0
15.600000000000001 0.30000000000000004 0.0
16.0 0.30000000000000004 0.0
0.0 0.4 0.0
0.4 0.4 0.0
0.8 0.4 0.0
1.2000000000000002 0.4 0.0
1.6 0.4 0.0
2.0 0.4 0.0
2.4000000000000004 0.4 0.0
2.8000000000000003 0.4 0.0
3.2 0.4 0.0
3.6 0.4 0.0
4.0 0.4 0.0
4.4 0.4 0.0
4.800000000000001 0.4 0.0
5.2 0.4 0.0
5.6000000000000005 0.4 0.0
6.0 0.4 0.0
6.4 0.4 0.0
6.800000000000001 0.4 0.0
7.2 0.4 0.0
7.6000000000000005 0.4 0.0
8.0 0.4 0.0
8.4 0.4 0.0
8.8 0.4 0.0
9.200000000000001 0.4 0.0
9.600000000000001 0.4 0.0
10.0 0.4 0.0
10.4 0.4 0.0
10.8 0.4 0.0
11.200000000000001 0.4 0.0
11.600000000000001 0.4 0.0
12.0 0.4 0.0
12.4 0.4 0.0
12.8 0.4 0.0
13.200000000000001 0.4 0.0
13.600000000000001 0.4 0.0
14.0 0.4 0.0
14.4 0.4 0.0
14.8 0.4 0.0
15.200000000000001 0.4 0.0
15.600000000000001 0.4 0.0
16.0 0.4 0.0
0.0 0.5 0.0
0.4 0.5 0.0
0.8 0.5 0.0
1.2000000000000002 0.5 0.0
1.6 0.5 0.0
2.0 0.5 0.0
2.4000000000000004 0.5 0.0
2.8000000000000003 0.5 0.0
3.2 0.5 0.0
3.6 0.5 0.0
4.0 0.5 0.0
4.4 0.5 0.0
4.800000000000001 0.5 0.0
5.2 0.5 0.0
5.6000000000000005 0.5 0.0
6.0 0.5 0.0
6.4 0.5 0.0
6.800000000000001 0.5 0.0
7.2 0.5 0.0
7.6000000000000005 0.5 0.0
8.0 0.5 0.0
8.4 0.5 0.0
8.8 0.5 0.0
9.200000000000001 0.5 0.0
9.600000000000001 0.5 0.0
10.0 0.5 0.0
10.4 0.5 0.0
10.8 0.5 0.0
11.200000000000001 0.5 0.0
11.600000000000001 0.5 0.0
12.0 0.5 0.0
12.4 0.5 0.0
12.8 0.5 0.0
13.200000000000001 0.5 0.0
13.600000000000001 0.5 0.0
14.0 0.5 0.0
14.4 0.5 0.0
14.8 0.5 0.0
15.200000000000001 0.5 0.0
15.600000000000001 0.5 0.0
16.0 0.5 0.0
0.0 0.6000000000000001 0.0
0.4 0.6000000000000001 0.0
0.8 0.6000000000000001 0.0
1.2000000000000002 0.6000000000000001 0.0
1.6 0.6000000000000001 0.0
2.0 0.6000000000000001 0.0
2.4000000000000004 0.6000000000000001 0.0
2.8000000000000003 0.6000000000000001 0.0
3.2 0.6000000000000001 0.0
3.6 0.6000000000000001 0.0
4.0 0.6000000000000001 0.0
4.4 0.6000000000000001 0.0
4.800000000000001 0.6000000000000001 0.0
5.2 0.6000000000000001 0.0
5.6000000000000005 0.6000000000000001 0.0
6.0 0.6000000000000001 0.0
6.4 0.6000000000000001 0.0
6.800000000000001 0.6000000000000001 0.0
7.2 0.6000000000000001 0.0
7.6000000000000005 0.6000000000000001 0.0
8.0 0.6000000000000001 0.0
8.4 0.6000000000000001 0.0
8.8 0.6000000000000001 0.0
9.200000000000001 0.6000000000000001 0.0
9.600000000000001 0.6000000000000001 0.0
10.0 0.6000000000000001 0.0
10.4 0.6000000000000001 0.0
10.8 0.6000000000000001 0.0
11.200000000000001 0.6000000000000001 0.0
11.600000000000001 0.6000000000000001 0.0
12.0 0.6000000000000001 0.0
12.4 0.6000000000000001 0.0
12.8 0.6000000000000001 0.0
13.200000000000001 0.6000000000000001 0.0
13.600000000000001 0.6000000000000001 0.0
14.0 0.6000000000000001 0.0
14.4 0.6000000000000001 0.0
14.8 0.6000000000000001 0.0
15.200000000000001 0.6000000000000001 0.0
15.600000000000001 0.6000000000000001 0.0
16.0 0.6000000000000001 0.0
0.0 0.7000000000000001 0.0
0.4 0.7000000000000001 0.0
0.8 0.7000000000000001 0.0
1.2000000000000002 0.7000000000000001 0.0
1.6 0.7000000000000001 0.0
2.0 0.7000000000000001 0.0
2.4000000000000004 0.7000000000000001 0.0
2.8000000000000003 0.7000000000000001 0.0
3.2 0.7000000000000001 0.0
3.6 0.7000000000000001 0.0
4.0 0.7000000000000001 0.0
4.4 0.7000000000000001 0.0
4.800000000000001 0.7000000000000001 0.0
5.2 0.7000000000000001 0.0
5.6000000000000005 0.7000000000000001 0.0
6.0 0.7000000000000001 0.0
6.4 0.7000000000000001 0.0
6.800000000000001 0.7000000000000001 0.0
7.2 0.7000000000000001 0.0
7.6000000000000005 0.7000000000000001 0.0
8.0 0.7000000000000001 0.0
8.4 0.7000000000000001 0.0
8.8 0.7000000000000001 0.0
9.200000000000001 0.7000000000000001 0.0
9.600000000000001 0.7000000000000001 0.0
10.0 0.7000000000000001 0.0
10.4 0.7000000000000001 0.0
10.8 0.7000000000000001 0.0
11.200000000000001 0.7000000000000001 0.0
11.600000000000001 0.7000000000000001 0.0
12.0 0.7000000000000001 0.0
12.4 0.7000000000000001 0.0
12.8 0.7000000000000001 0.0
13.200000000000001 0.7000000000000001 0.0
13.600000000000001 0.7000000000000001 0.0
14.0 0.7000000000000001 0.0
14.4 0.7000000000000001 0.0
14.8 0.7000000000000001 0.0
15.200000000000001 0.7000000000000001 0.0
15.600000000000001 0.7000000000000001 0.0
16.0 0.7000000000000001 0.0
0.0 0.8 0.0
0.4 0.8 0.0
0.8 0.8 0.0
1.2000000000000002 0.8 0.0
1.6 0.8 0.0
2.0 0.8 0.0
2.4000000000000004 0.8 0.0
2.8000000000000003 0.8 0.0
3.2 0.8 0.0
3.6 0.8 0.0
4.0 0.8 0.0
4.4 0.8 0.0
4.800000000000001 0.8 0.0
5.2 0.8 0.0
5.6000000000000005 0.8 0.0
6.0 0.8 0.0
6.4 0.8 0.0
6.800000000000001 0.8 0.0
7.2 0.8 0.0
7.6000000000000005 0.8 0.0
8.0 0.8 0.0
8.4 0.8 0.0
8.8 0.8 0.0
9.200000000000001 0.8 0.0
9.600000000000001 0.8 0.0
10.0 0.8 0.0
10.4 0.8 0.0
10.8 0.8 0.0
11.200000000000001 0.8 0.0
11.600000000000001 0.8 0.0
12.0 0.8 0.0
12.4 0.8 0.0
12.8 0.8 0.0
13.200000000000001 0.8 0.0
13.600000000000001 0.8 0.0
14.0 0.8 0.0
14.4 0.8 0.0
14.8 0.8 0.0
15.200000000000001 0.8 0.0
15.600000000000001 0.8 0.0
16.0 0.8 0.0
0.0 0.9 0.0
0.4 0.9 0.0
0.8 0.9 0.0
1.2000000000000002 0.9 0.0
1.6 0.9 0.0
2.0 0.9 0.0
2.4000000000000004 0.9 0.0
2.8000000000000003 0.9 0.0
3.2 0.9 0.0
3.6 0.9 0.0
4.0 0.9 0.0
4.4 0.9 0.0
4.800000000000001 0.9 0.0
5.2 0.9 0.0
5.6000000000000005 0.9 0.0
6.0 0.9 0.0
6.4 0.9 0.0
6.800000000000001 0.9 0.0
7.2 0.9 0.0
7.6000000000000005 0.9 0.0
8.0 0.9 0.0
8.4 0.9 0.0
8.8 0.9 0.0
9.200000000000001 0.9 0.0
9.600000000000001 0.9 0.0
10.0 0.9 0.0
10.4 0.9 0.0
10.8 0.9 0.0
11.200000000000001 0.9 0.0
11.600000000000001 0.9 0.0
12.0 0.9 0.0
12.4 0.9 0.0
12.8 0.9 0.0
13.200000000000001 0.9 0.0
13.600000000000001 0.9 0.0
14.0 0.9 0.0
14.4 0.9 0.0
14.8 0.9 0.0
15.200000000000001 0.9 0.0
15.600000000000001 0.9 0.0
16.0 0.9 0.0
0.0 1.0 0.0
0.4 1.0 0.0
0.8 1.0 0.0
1.2000000000000002 1.0 0.0
1.6 1.0 0.0
2.0 1.0 0.0
2.4000000000000004 1.0 0.0
2.8000000000000003 1.0 0.0
3.2 1.0 0.0
3.6 1.0 0.0
4.0 1.0 0.0
4.4 1.0 0.0
4.800000000000001 1.0 0.0
5.2 1.0 0.0
5.6000000000000005 1.0 0.0
6.0 1.0 0.0
6.4 1.0 0.0
6.800000000000001 1.0 0.0
7.2 1.0 0.0
7.6000000000000005 1.0 0.0
8.0 1.0 0.0
8.4 1.0 0.0
8.8 1.0 0.0
9.200000000000001 1.0 0.0
9.600000000000001 1.0 0.0
10.0 1.0 0.0
10.4 1.0 0.0
10.8 1.0 0.0
11.200000000000001 1.0 0.0
11.600000000000001 1.0 0.0
12.0 1.0 0.0
12.4 1.0 0.0
12.8 1.0 0.0
13.200000000000001 1.0 0.0
13.600000000000001 1.0 0.0
14.0 1.0 0.0
14.4 1.0 0.0
14.8 1.0 0.0
15.200000000000001 1.0 0.0
15.600000000000001 1.0 0.0
16.0 1.0 0.0
0.0 1.1 0.0
0.4 1.1 0.0
0.8 1.1 0.0
1.2000000000000002 1.1 0.0
1.6 1.1 0.0
[...]
POINT_DATA 861
SCALARS Disp float 2
LOOKUP_TABLE default
0.0 0.0
0.001980220491446285 -0.07282983404147397
0.00281983400622584 -0.14146778685444197
0.0034866853681233337 -0.20977899047382867
0.004256294103404853 -0.2777952006976715
0.005193565751962095 -0.3454621512438789
0.0064098146310846175 -0.4126696807183709
0.00794807572714883 -0.47930148762239894
0.009875918812392217 -0.5452044666027565
0.012296704833791536 -0.6101782181635875
0.015373121797340093 -0.6739475549449296
0.019379344988863956 -0.736112502928055
0.024751295092562138 -0.7961030251060582
0.03206311999660847 -0.8531762449594735
0.041997043738781645 -0.9064309888450097
0.055247147667807875 -0.9548195748354663
0.07236784709710475 -0.9971494689617257
0.09359135152831652 -1.0320956236430754
0.11867276787893465 -1.0583040165406257
0.14684231938383333 -1.0746223496362257
0.17684138430332294 -1.080337362334667
0.20684044922281267 -1.074622349636214
0.23501000072771022 -1.0583040165406
0.26009141707832656 -1.0320956236430383
0.2813149215095358 -0.9971494689616791
0.29843562093883036 -0.9548195748354148
0.31168572486785445 -0.9064309888449533
0.32161964861002457 -0.8531762449594134
0.3289314735140677 -0.796103025105996
0.33430342361776255 -0.736112502927992
0.33830964680928294 -0.6739475549448677
0.34138606377282854 -0.610178218163528
0.3438068497942254 -0.5452044666026997
0.3457346928794664 -0.4793014876223465
0.3472729539755285 -0.412669680718323
0.34848920285464935 -0.34546215124383756
0.34942647450320574 -0.2777952006976365
0.3501960832384867 -0.20977899047380105
0.350862934600384 -0.14146778685442138
0.3517025481151631 -0.07282983404146118
0.35368276860660924 0.0
0.01818783805614837 -0.001052286619753542
0.019442521208731 -0.0728082691420363
0.019904238562914955 -0.14155336631427054
0.020522855794323887 -0.20984674130820408
0.02121048433313224 -0.2778791010442151
0.022049899063455263 -0.3455775010240297
0.023135568596172273 -0.4128343018286582
0.02451263165993327 -0.47952365079893794
0.02623725304154141 -0.545503282842908
0.02839672905641399 -0.610582246248321
0.031133135976087804 -0.674504589922137
0.034683941231872434 -0.7369043306152132
0.03943137676264553 -0.7972527663163518
0.04591242455576845 -0.8548386695143815
0.05476453092034685 -0.9087794972395276
0.06664240732104346 -0.9580139455270898
0.08206494010614881 -1.001293285145232
0.10124905434258016 -1.0371945970626633
0.12398484160422409 -1.064241375192079
0.14958331457012305 -1.0811592550023295
0.1768413843033216 -1.0871036577562316
0.20409945403652002 -1.0811592550023175
0.2296979270024181 -1.064241375192053
0.25243371426406047 -1.0371945970626255
0.27161782850049004 -1.0012932851451852
0.28704036128559357 -0.958013945527038
0.29891823768628817 -0.9087794972394707
0.30777034405086384 -0.8548386695143207
0.31425139184398393 -0.7972527663162889
0.31899882737475405 -0.7369043306151497
0.3225496326305356 -0.6745045899220746
0.3252860395502067 -0.610582246248261
0.32744551556507706 -0.5455032828428509
0.32917013694668307 -0.4795236507988851
0.3305472000104422 -0.41283430182861003
0.33163286954315774 -0.3455775010239881
0.3324722842734801 -0.27787910104418007
0.333159912812288 -0.20984674130817646
0.3337785300436967 -0.14155336631424992
0.3342402473978808 -0.07280826914202361
0.3354949305504625 -0.0010522866197524641
0.035905941469378096 -0.0018837650606323638
0.03677718804660241 -0.07278200606715572
0.0370318091581375 -0.14160242379290688
0.03753154255541073 -0.20991188030818064
0.03814468533926213 -0.27795312541637474
0.038892056382326005 -0.34567580732296443
0.03984203745112969 -0.41297381539355715
0.04105902044797488 -0.4797130620470141
0.04258236587219466 -0.5457580460255864
0.04448552413402937 -0.6109268028864897
0.046889474467366375 -0.6749804624769251
0.04999852693494419 -0.7375813801601444
0.054143810737610716 -0.7982403535678912
0.05980563295707184 -0.8562826151918812
0.06758217061567015 -0.9108415049759654
0.07807793314035377 -0.9608434996680308
0.09177575880985009 -1.0049876022471558
0.10889087026106221 -1.0417628004467783
0.12926144789246027 -1.0695835186155833
0.15227460068714974 -1.087054206455302
0.17684138430332058 -1.0932149289746027
0.20140816791949112 -1.0870542064552902
0.2244213207141797 -1.0695835186155573
0.2447918983455765 -1.0417628004467403
0.2619070097967872 -1.004987602247109
0.275604835466282 -0.9608434996679788
0.2861005979909638 -0.9108415049759082
0.29387713564955975 -0.8562826151918201
0.2995389578690184 -0.798240353567828
0.30368424167168223 -0.7375813801600805
0.3067932941392574 -0.6749804624768623
0.30919724447259195 -0.6109268028864293
0.3111004027344247 -0.5457580460255289
0.3126237481586425 -0.4797130620469608
0.31384073115548605 -0.4129738153935087
0.3147907122242886 -0.3456758073229228
0.31553808326735194 -0.27795312541633965
0.31615122605120294 -0.209911880308153
0.31665095944847604 -0.1416024237928863
0.31690558056001134 -0.07278200606714304
0.31777682713723454 -0.001883765060630257
0.05336473430923121 -0.0025520193670837093
0.05400721108107357 -0.07277304748751351
0.05414971491920142 -0.14162594747297902
0.054527694593603446 -0.20996561839972905
0.055055254021258444 -0.278020215158318
0.055715642902139796 -0.3457581213900306
0.0565355066167477 -0.413087856669299
0.057588718110799623 -0.4798722125908061
0.058913381289280385 -0.5459711074390464
0.06056474075749078 -0.6112148041110032
0.06264446845451015 -0.6753784452029974
0.06532377656193016 -0.7381493642881841
0.06888583509384422 -0.7990729641747311
0.07375239881298204 -0.857511534207871
0.0804604853567049 -0.9126180063990061
0.08957026161652232 -0.9633053504238555
0.10152781211549353 -1.0082266492263898
0.11654891111392457 -1.0457945325425089
0.13452580074796178 -1.074325410342301
0.15494301085778853 -1.0923110340154678
0.17684138430331972 -1.0986849906118685
0.19873975774885055 -1.0923110340154558
0.21915696785867642 -1.0743254103422746
0.23713385749271246 -1.045794532542471
0.25215495649114233 -1.008226649226343
0.2641125069901122 -0.963305350423803
0.27322228324992803 -0.9126180063989486
0.2799303697936489 -0.8575115342078096
0.28479693351278446 -0.7990729641746672
0.28835899204469617 -0.7381493642881197
0.2910383001521139 -0.6753784452029341
0.29311802784913116 -0.6112148041109423
0.29476938731733976 -0.5459711074389887
0.29609405049581883 -0.4798722125907525
0.29714726198986935 -0.4130878566692503
0.2979671257044764 -0.34575812138998896
0.2986275145853573 -0.27802021515828285
0.2991550740130119 -0.20996561839970138
0.2995330536874139 -0.14162594747295845
0.2996755575255419 -0.07277304748750076
0.3003180342973833 -0.0025520193670807026
0.07066474788320963 -0.0030924384348451814
0.07115637395775688 -0.07278329986286236
0.07123763874715361 -0.1416347881108756
0.07151010731724246 -0.2100059296148027
0.07194588255852345 -0.2780778138696476
0.07251296020151007 -0.34583073298394
0.07321992342037037 -0.413179665978892
0.0741038700566713 -0.48000203875494396
0.07523183625768882 -0.5461455841216623
0.07663617992398164 -0.6114495336520557
0.07839927255104015 -0.6757032034284733
0.08066191044186198 -0.7386132480403391
0.08365889186301351 -0.7997572549386364
0.08775066126618597 -0.8585324354704779
0.09341268097877527 -0.9141113422147886
0.1011407784825286 -0.9653987051867627
0.11134784251403737 -1.0110069272728774
0.12425491979373281 -1.049283851622836
0.13980867602675345 -1.0784614921562699
0.15760951836548417 -1.0969305256685025
0.17684138430331908 -1.1035204026881582
0.19607325024115338 -1.0969305256684903
0.21387409257988316 -1.0784614921562434
0.22942784881290268 -1.0492838516227976
0.24233492609259707 -1.0110069272728304
0.25254199012410466 -0.9653987051867101
0.26027008762785653 -0.914111342214731
0.26593210734044415 -0.8585324354704161
0.2700238767436148 -0.7997572549385723
0.27302085816476424 -0.7386132480402744
0.27528349605558416 -0.6757032034284097
0.2770465886826408 -0.6114495336519946
0.27845093234893215 -0.5461455841216043
0.27957889854994816 -0.4800020387548901
0.2804628451862481 -0.4131796659788433
0.28116980840510775 -0.3458307329838982
0.2817368860480939 -0.27807781386961244
0.2821726612893747 -0.210005929614775
0.28244512985946346 -0.14163478811085506
0.28252639464886026 -0.07278329986284955
0.2830180207234067 -0.0030924384348414175
0.08785645153123632 -0.0035291921589462767
0.08824480211822408 -0.07281042420385647
0.088289786126023 -0.14163593339923364
0.08847549512553059 -0.2100336423814893
0.0888187892083382 -0.2781245879084153
0.08928811667452335 -0.3458929350573983
0.08988279757597353 -0.41325645146133616
0.09061727419928763 -0.4801009890702686
0.09153878076586307 -0.5462845566165282
0.09270113347778984 -0.6116352598794211
0.09415559363151202 -0.6759589712631873
0.0960134633962473 -0.7389794024924218
0.09846460748189496 -0.8003007027279934
0.10180735836041063 -0.8593521493416794
0.10644148686225736 -0.9153280656439209
0.1128059838137807 -0.9671259557031264
0.12126816486454695 -1.013326641511907
0.13204273097092503 -1.0522252847893108
0.14514130986983892 -1.081985158488487
0.16029382422466398 -1.1009096002766607
0.17684138430331836 -1.1077227332781776
0.19338894438197202 -1.100909600276648
0.2085414587367961 -1.0819851584884606
0.22164003763570903 -1.0522252847892721
0.2324146037420861 -1.01332664151186
0.24087678479285127 -0.9671259557030736
0.24724128174437335 -0.915328065643863
0.25187541024621873 -0.8593521493416175
0.2552181611247329 -0.800300702727929
0.2576693052103788 -0.7389794024923567
0.25952717497511246 -0.6759589712631233
0.2609816351288332 -0.6116352598793597
0.2621439878407587 -0.54628455661647
0.263065494407333 -0.4801009890702146
0.26379997103064634 -0.41325645146128737
0.264394651932096 -0.3458929350573564
0.2648639793982808 -0.2781245879083801
0.2652072734810882 -0.2100336423814616
0.26539298248059573 -0.14163593339921307
0.26543796648839474 -0.0728104242038436
0.26582631707538185 -0.0035291921589419148
0.10497194485424989 -0.003881950118571559
0.10528317045931708 -0.07285076741395176
0.1053076298932137 -0.1416335287899117
0.10542200705069221 -0.21005044201665404
0.10567582645677988 -0.27816022039245564
0.10604503277411655 -0.34594350397967616
0.10652172768467388 -0.4133206820165265
0.10711517697007186 -0.480179532029312
0.10784466294297157 -0.5463877502068426
0.10875983811097283 -0.6117765604105642
0.10991479980394604 -0.6761517125303592
0.11138010686610063 -0.7392546539666407
0.11330445054863617 -0.8007117178321674
0.11592275486373196 -0.8599803221720024
0.11956060863323423 -0.9162747913324882
0.12458030051114077 -0.9684928629829087
0.1313084660592543 -1.0151881258476396
0.13994998667226755 -1.0546146492078428
0.1505618382848878 -1.0848881652044142
0.1630175469088386 -1.1042408109771646
0.17684138430331747 -1.111289007132876
0.1906652216977958 -1.1042408109771518
0.2031209303217457 -1.0848881652043874
0.2137327819343649 -1.054614649207804
0.22237430254737736 -1.015188125847592
0.22910246809548984 -0.9684928629828558
0.23412215997339536 -0.9162747913324303
0.2377600137428966 -0.8599803221719402
0.24037831805799126 -0.8007117178321027
0.24230266174052537 -0.7392546539665753
0.24376796880267868 -0.676151712530295
0.24492293049565078 -0.6117765604105027
0.24583810566365102 -0.5463877502067844
0.24656759163654995 -0.48017953202925806
0.2471610409219474 -0.4133206820164776
0.2476377358325043 -0.34594350397963414
0.2480069421498407 -0.2781602203924205
0.24826076155592824 -0.21005044201662632
0.24837513871340672 -0.14163352878989113
0.2483995981473034 -0.07285076741393882
0.24871082375237005 -0.0038819501185667097
0.12203807483642277 -0.0041630114021074275
0.12228278453392875 -0.07289991982729309
0.12229485679249502 -0.1416300599271973
0.12234984940477399 -0.21005802773105559
0.12251875132062347 -0.2781848411860688
0.12278719592458401 -0.34598178574497335
0.12314369860088774 -0.41337075167744153
0.12359097637225988 -0.48024187831344234
0.12414223417258544 -0.5464638135723116
0.12482011881741881 -0.6118762308522829
0.12567613387231127 -0.6762886446041533
0.12676181555256572 -0.7394474512186588
0.12817895813269153 -0.8010005281573166
0.13010041934150357 -0.8604280390090073
0.1327728378546578 -0.9169633762937814
0.1364814846232974 -0.9695072744891239
0.14149489888746536 -1.0165956394226745
0.1480029052897917 -1.056452018114355
0.15610687046435212 -1.0871620958326766
0.16580646403089835 -1.1069116619968449
0.17684138430331647 -1.1142111023703594
0.18787630457573426 -1.106911661996832
0.19757589814227958 -1.0871620958326496
0.20567986331683918 -1.0564520181143162
0.21218786971916473 -1.016595639422627
0.2172012839833319 -0.9695072744890707
0.22090993075197066 -0.9169633762937234
0.22358234926512416 -0.860428039008945
0.22550381047393536 -0.8010005281572518
0.22692095305406018 -0.7394474512185933
0.22800663473431373 -0.6762886446040889
0.2288626497892054 -0.6118762308522213
0.2295405344340381 -0.5464638135722533
0.23009179223436313 -0.4802418783133883
0.23053907000573487 -0.4133707516773926
0.23089557268203836 -0.3459817857449314
0.2311640172859987 -0.27818484118603354
0.2313329192018481 -0.21005802773102783
0.23138791181412705 -0.14163005992717673
0.23139998407269333 -0.07289991982728007
0.23164469377019895 -0.004163011402102229
0.13906169904854807 -0.004390197963397012
0.13925742575647884 -0.07295264429191416
0.1392557524744774 -0.1416266596861216
0.13926080866563956 -0.21005793603521702
0.1393496571503689 -0.2781988132326264
0.1395177098967773 -0.3460075934790839
0.13975235139703818 -0.4134063414132948
0.1400508752931172 -0.4802867542064878
0.14042072925740515 -0.546518720733021
0.1408738814833078 -0.6119443927236033
0.14143901222018412 -0.6763769534023663
0.14215752023981001 -0.739569662856133
0.14308713202534476 -0.8011806645717815
0.1443400200972017 -0.8607106041594043
0.1460837061958722 -0.9174090332743905
0.14852016757653427 -0.970182533005066
0.15184789504001844 -1.0175580615142017
0.1562372170993136 -1.0577400258849885
0.16181536803757657 -1.088800397123211
0.1686897142123585 -1.108906078270626
0.17684138430331536 -1.1164763434300227
0.18499305439427188 -1.1089060782706128
0.19186740056905324 -1.0888003971231834
0.19744555150731546 -1.0577400258849494
0.20183487356660998 -1.0175580615141542
0.20516260103009362 -0.9701825330050127
0.20759906241075524 -0.9174090332743323
0.20934274850942522 -0.860710604159342
0.2105956365812817 -0.8011806645717165
0.21152524836681585 -0.7395696628560674
0.21224375638644122 -0.6763769534023019
0.2128088871233171 -0.6119443927235417
0.21326203934921936 -0.5465187207329627
0.21363189331350696 -0.48028675420643374
0.21393041720958572 -0.41340634141324584
0.21416505870984648 -0.34600759347904186
0.21433311145625483 -0.27819881323259116
0.21442195994098415 -0.21005793603518927
0.2144270161321463 -0.141626659686101
0.21442534285014486 -0.07295264429190108
0.21462106955807542 -0.00439019796339158
0.156051522580459 -0.00457788690621677
0.15621227319861714 -0.07300509870679528
0.15619640319809316 -0.1416233002602137
0.15615752646608735 -0.21005145121811503
0.15617108178239636 -0.2782026291775817
0.15624005584708278 -0.3460209343200579
0.15635206734444634 -0.41342698138475203
0.15650054057886847 -0.4803137054891405
0.1566854512256302 -0.5465519428281926
0.15691396121928042 -0.6119857348542064
0.15719463503394684 -0.6764281932742816
0.15755462043254792 -0.7396380346254232
0.15801802943973703 -0.8012729679979774
0.15863382493494693 -0.8608508706414378
0.1594897274789383 -0.9176359355924945
0.16069528212669773 -0.9705415856063024
0.16237541385189722 -1.0180923966300701
0.16465940074081561 -1.0584908770265251
0.16771931442601645 -1.089803848903921
0.1717128641093378 -1.110204950567376
0.17684138430331406 -1.118064767634287
0.18196990449729014 -1.1102049505673628
0.1859634541806111 -1.0898038489038937
0.18902336786581145 -1.0584908770264863
0.19130735475472946 -1.0180923966300226
0.19298748647992875 -0.9705415856062491
0.19419304112768807 -0.9176359355924362
0.1950489436716792 -0.8608508706413754
0.195664739166889 -0.8012729679979125
0.1961281481740779 -0.7396380346253576
0.1964881335726788 -0.6764281932742173
0.19676880738734517 -0.6119857348541446
0.19699731738099524 -0.5465519428281342
0.1971822280277568 -0.48031370548908636
0.1973307012621789 -0.4134269813847031
0.1974427127595424 -0.3460209343200159
0.19751168682422893 -0.2782026291775465
0.19752524214053796 -0.21005145121808724
0.19748636540853223 -0.14162330026019307
0.19747049540800823 -0.07300509870678218
0.19763124602616622 -0.004577886906211158
0.1730220417685826 -0.004730845422577613
0.1731522689856484 -0.07305514098757106
0.17312244077868952 -0.14161953740714528
0.1730435219723595 -0.21003944722925838
0.17298598690263234 -0.27819687865216935
0.17295773538392886 -0.34602191145612066
0.17294726203279945 -0.4134325738653394
0.1729447846464257 -0.48032243590027934
0.17294498718582071 -0.5465630586119644
0.1729455378793768 -0.6119996367212682
0.17294594414040573 -0.6764450888410938
0.17294631952431183 -0.7396606885507198
0.17294666491267294 -0.8013026384371144
0.1729458829060383 -0.8608923654019927
0.17294316182382422 -0.9176966420121081
0.17294774758500808 -0.9706387896364788
0.17299638881064763 -1.0182447296426487
0.1731880046989372 -1.058741754140592
0.17373434674594154 -1.090206765328291
0.17488359566063003 -1.1108080424133822
0.1768413843033127 -1.1189593579741741
0.17879917294599518 -1.110808042413369
0.1799484218606836 -1.0902067653282634
0.18049476390768776 -1.058741754140553
0.18068637979597732 -1.0182447296426012
0.18073502102161704 -0.9706387896364254
0.18073960678280107 -0.9176966420120499
0.18073688570058705 -0.8608923654019303
0.18073610369395268 -0.8013026384370493
0.180736449082314 -0.7396606885506543
0.1807368244662203 -0.6764450888410296
0.18073723072724945 -0.6119996367212066
0.18073778142080563 -0.546563058611906
0.1807379839602007 -0.48032243590022516
0.18073550657382706 -0.4134325738652904
0.1807250332226978 -0.3460219114560787
0.18069678170399445 -0.2781968786521341
0.18063924663426742 -0.21003944722923065
0.1805603278279375 -0.14161953740712468
0.18053049962097864 -0.07305514098755789
0.1806607268380443 -0.0047308454225718595
0.1899819924847053 -0.004852944631288528
0.19008348279852555 -0.07310090860247084
0.19003903498741725 -0.14161489349283474
0.18992278113350858 -0.2100224756465097
0.18979770460102544 -0.2781821414981541
0.18967439757179475 -0.3460107637145484
0.1895422853149679 -0.41342315073736746
0.18938915231784675 -0.4803128659333231
0.189204616138284 -0.546552066783213
0.18897715808439672 -0.6119859491095426
0.18869724903952745 -0.676428415520838
0.18833807136580105 -0.7396381913701077
0.18787530227757504 -0.801272866279295
0.18725831249103708 -0.8608499045274073
0.1863970570922576 -0.9176349837873669
0.18519680913781497 -0.9705484454652898
0.18360636780870815 -1.0181281641336641
0.18167964659825508 -1.0586191870801602
0.17961638449386164 -1.0901348028570519
0.17778259215994488 -1.110816315257152
0.17684138430331134 -1.1192565331113258
0.17590017644667774 -1.1108163152571386
0.17406638411276093 -1.0901348028570246
0.17200312200836768 -1.0586191870801211
0.17007640079791508 -1.0181281641336166
0.16848595946880876 -0.9705484454652366
0.1672857115143666 -0.9176349837873086
0.16642445611558748 -0.860849904527345
0.16580746632905016 -0.80127286627923
0.16534469724082476 -0.739638191370042
0.16498551956709895 -0.6764284155207739
0.16470561052223023 -0.6119859491094809
0.1644781524683433 -0.5465520667831545
0.1642936162887808 -0.4803128659332689
0.16414048329165995 -0.4134231507373185
0.16400837103483334 -0.34601076371450656
0.16388506400560285 -0.2781821414981189
0.1637599874731199 -0.2100224756464819
0.16364373361921133 -0.14161489349281414
0.16359928580810312 -0.07310090860245762
0.16370077612192327 -0.004852944631282666
0.20693731475508126 -0.0049478295669002975
0.20701160112729255 -0.07314101242179305
0.2069512804945159 -0.14160877504536107
0.20679947491423417 -0.21000090601347546
0.20660987268156586 -0.2781589482794452
0.20639382644095883 -0.3459878206881882
0.20614163872597976 -0.4133989104440759
0.20583917110210823 -0.48028515017875173