# vtk DataFile Version 3.0
Some data
ASCII
DATASET UNSTRUCTURED_GRID
POINTS 861 float
0.0 0.0 0.0
0.4 0.0 0.0
0.8 0.0 0.0
1.2000000000000002 0.0 0.0
1.6 0.0 0.0
2.0 0.0 0.0
2.4000000000000004 0.0 0.0
2.8000000000000003 0.0 0.0
3.2 0.0 0.0
3.6 0.0 0.0
4.0 0.0 0.0
4.4 0.0 0.0
4.800000000000001 0.0 0.0
5.2 0.0 0.0
5.6000000000000005 0.0 0.0
6.0 0.0 0.0
6.4 0.0 0.0
6.800000000000001 0.0 0.0
7.2 0.0 0.0
7.6000000000000005 0.0 0.0
8.0 0.0 0.0
8.4 0.0 0.0
8.8 0.0 0.0
9.200000000000001 0.0 0.0
9.600000000000001 0.0 0.0
10.0 0.0 0.0
10.4 0.0 0.0
10.8 0.0 0.0
11.200000000000001 0.0 0.0
11.600000000000001 0.0 0.0
12.0 0.0 0.0
12.4 0.0 0.0
12.8 0.0 0.0
13.200000000000001 0.0 0.0
13.600000000000001 0.0 0.0
14.0 0.0 0.0
14.4 0.0 0.0
14.8 0.0 0.0
15.200000000000001 0.0 0.0
15.600000000000001 0.0 0.0
16.0 0.0 0.0
0.0 0.1 0.0
0.4 0.1 0.0
0.8 0.1 0.0
1.2000000000000002 0.1 0.0
1.6 0.1 0.0
2.0 0.1 0.0
2.4000000000000004 0.1 0.0
2.8000000000000003 0.1 0.0
3.2 0.1 0.0
3.6 0.1 0.0
4.0 0.1 0.0
4.4 0.1 0.0
4.800000000000001 0.1 0.0
5.2 0.1 0.0
5.6000000000000005 0.1 0.0
6.0 0.1 0.0
6.4 0.1 0.0
6.800000000000001 0.1 0.0
7.2 0.1 0.0
7.6000000000000005 0.1 0.0
8.0 0.1 0.0
8.4 0.1 0.0
8.8 0.1 0.0
9.200000000000001 0.1 0.0
9.600000000000001 0.1 0.0
10.0 0.1 0.0
10.4 0.1 0.0
10.8 0.1 0.0
11.200000000000001 0.1 0.0
11.600000000000001 0.1 0.0
12.0 0.1 0.0
12.4 0.1 0.0
12.8 0.1 0.0
13.200000000000001 0.1 0.0
13.600000000000001 0.1 0.0
14.0 0.1 0.0
14.4 0.1 0.0
14.8 0.1 0.0
15.200000000000001 0.1 0.0
15.600000000000001 0.1 0.0
16.0 0.1 0.0
0.0 0.2 0.0
0.4 0.2 0.0
0.8 0.2 0.0
1.2000000000000002 0.2 0.0
1.6 0.2 0.0
2.0 0.2 0.0
2.4000000000000004 0.2 0.0
2.8000000000000003 0.2 0.0
3.2 0.2 0.0
3.6 0.2 0.0
4.0 0.2 0.0
4.4 0.2 0.0
4.800000000000001 0.2 0.0
5.2 0.2 0.0
5.6000000000000005 0.2 0.0
6.0 0.2 0.0
6.4 0.2 0.0
6.800000000000001 0.2 0.0
7.2 0.2 0.0
7.6000000000000005 0.2 0.0
8.0 0.2 0.0
8.4 0.2 0.0
8.8 0.2 0.0
9.200000000000001 0.2 0.0
9.600000000000001 0.2 0.0
10.0 0.2 0.0
10.4 0.2 0.0
10.8 0.2 0.0
11.200000000000001 0.2 0.0
11.600000000000001 0.2 0.0
12.0 0.2 0.0
12.4 0.2 0.0
12.8 0.2 0.0
13.200000000000001 0.2 0.0
13.600000000000001 0.2 0.0
14.0 0.2 0.0
14.4 0.2 0.0
14.8 0.2 0.0
15.200000000000001 0.2 0.0
15.600000000000001 0.2 0.0
16.0 0.2 0.0
0.0 0.30000000000000004 0.0
0.4 0.30000000000000004 0.0
0.8 0.30000000000000004 0.0
1.2000000000000002 0.30000000000000004 0.0
1.6 0.30000000000000004 0.0
2.0 0.30000000000000004 0.0
2.4000000000000004 0.30000000000000004 0.0
2.8000000000000003 0.30000000000000004 0.0
3.2 0.30000000000000004 0.0
3.6 0.30000000000000004 0.0
4.0 0.30000000000000004 0.0
4.4 0.30000000000000004 0.0
4.800000000000001 0.30000000000000004 0.0
5.2 0.30000000000000004 0.0
5.6000000000000005 0.30000000000000004 0.0
6.0 0.30000000000000004 0.0
6.4 0.30000000000000004 0.0
6.800000000000001 0.30000000000000004 0.0
7.2 0.30000000000000004 0.0
7.6000000000000005 0.30000000000000004 0.0
8.0 0.30000000000000004 0.0
8.4 0.30000000000000004 0.0
8.8 0.30000000000000004 0.0
9.200000000000001 0.30000000000000004 0.0
9.600000000000001 0.30000000000000004 0.0
10.0 0.30000000000000004 0.0
10.4 0.30000000000000004 0.0
10.8 0.30000000000000004 0.0
11.200000000000001 0.30000000000000004 0.0
11.600000000000001 0.30000000000000004 0.0
12.0 0.30000000000000004 0.0
12.4 0.30000000000000004 0.0
12.8 0.30000000000000004 0.0
13.200000000000001 0.30000000000000004 0.0
13.600000000000001 0.30000000000000004 0.0
14.0 0.30000000000000004 0.0
14.4 0.30000000000000004 0.0
14.8 0.30000000000000004 0.0
15.200000000000001 0.30000000000000004 0.0
15.600000000000001 0.30000000000000004 0.0
16.0 0.30000000000000004 0.0
0.0 0.4 0.0
0.4 0.4 0.0
0.8 0.4 0.0
1.2000000000000002 0.4 0.0
1.6 0.4 0.0
2.0 0.4 0.0
2.4000000000000004 0.4 0.0
2.8000000000000003 0.4 0.0
3.2 0.4 0.0
3.6 0.4 0.0
4.0 0.4 0.0
4.4 0.4 0.0
4.800000000000001 0.4 0.0
5.2 0.4 0.0
5.6000000000000005 0.4 0.0
6.0 0.4 0.0
6.4 0.4 0.0
6.800000000000001 0.4 0.0
7.2 0.4 0.0
7.6000000000000005 0.4 0.0
8.0 0.4 0.0
8.4 0.4 0.0
8.8 0.4 0.0
9.200000000000001 0.4 0.0
9.600000000000001 0.4 0.0
10.0 0.4 0.0
10.4 0.4 0.0
10.8 0.4 0.0
11.200000000000001 0.4 0.0
11.600000000000001 0.4 0.0
12.0 0.4 0.0
12.4 0.4 0.0
12.8 0.4 0.0
13.200000000000001 0.4 0.0
13.600000000000001 0.4 0.0
14.0 0.4 0.0
14.4 0.4 0.0
14.8 0.4 0.0
15.200000000000001 0.4 0.0
15.600000000000001 0.4 0.0
16.0 0.4 0.0
0.0 0.5 0.0
0.4 0.5 0.0
0.8 0.5 0.0
1.2000000000000002 0.5 0.0
1.6 0.5 0.0
2.0 0.5 0.0
2.4000000000000004 0.5 0.0
2.8000000000000003 0.5 0.0
3.2 0.5 0.0
3.6 0.5 0.0
4.0 0.5 0.0
4.4 0.5 0.0
4.800000000000001 0.5 0.0
5.2 0.5 0.0
5.6000000000000005 0.5 0.0
6.0 0.5 0.0
6.4 0.5 0.0
6.800000000000001 0.5 0.0
7.2 0.5 0.0
7.6000000000000005 0.5 0.0
8.0 0.5 0.0
8.4 0.5 0.0
8.8 0.5 0.0
9.200000000000001 0.5 0.0
9.600000000000001 0.5 0.0
10.0 0.5 0.0
10.4 0.5 0.0
10.8 0.5 0.0
11.200000000000001 0.5 0.0
11.600000000000001 0.5 0.0
12.0 0.5 0.0
12.4 0.5 0.0
12.8 0.5 0.0
13.200000000000001 0.5 0.0
13.600000000000001 0.5 0.0
14.0 0.5 0.0
14.4 0.5 0.0
14.8 0.5 0.0
15.200000000000001 0.5 0.0
15.600000000000001 0.5 0.0
16.0 0.5 0.0
0.0 0.6000000000000001 0.0
0.4 0.6000000000000001 0.0
0.8 0.6000000000000001 0.0
1.2000000000000002 0.6000000000000001 0.0
1.6 0.6000000000000001 0.0
2.0 0.6000000000000001 0.0
2.4000000000000004 0.6000000000000001 0.0
2.8000000000000003 0.6000000000000001 0.0
3.2 0.6000000000000001 0.0
3.6 0.6000000000000001 0.0
4.0 0.6000000000000001 0.0
4.4 0.6000000000000001 0.0
4.800000000000001 0.6000000000000001 0.0
5.2 0.6000000000000001 0.0
5.6000000000000005 0.6000000000000001 0.0
6.0 0.6000000000000001 0.0
6.4 0.6000000000000001 0.0
6.800000000000001 0.6000000000000001 0.0
7.2 0.6000000000000001 0.0
7.6000000000000005 0.6000000000000001 0.0
8.0 0.6000000000000001 0.0
8.4 0.6000000000000001 0.0
8.8 0.6000000000000001 0.0
9.200000000000001 0.6000000000000001 0.0
9.600000000000001 0.6000000000000001 0.0
10.0 0.6000000000000001 0.0
10.4 0.6000000000000001 0.0
10.8 0.6000000000000001 0.0
11.200000000000001 0.6000000000000001 0.0
11.600000000000001 0.6000000000000001 0.0
12.0 0.6000000000000001 0.0
12.4 0.6000000000000001 0.0
12.8 0.6000000000000001 0.0
13.200000000000001 0.6000000000000001 0.0
13.600000000000001 0.6000000000000001 0.0
14.0 0.6000000000000001 0.0
14.4 0.6000000000000001 0.0
14.8 0.6000000000000001 0.0
15.200000000000001 0.6000000000000001 0.0
15.600000000000001 0.6000000000000001 0.0
16.0 0.6000000000000001 0.0
0.0 0.7000000000000001 0.0
0.4 0.7000000000000001 0.0
0.8 0.7000000000000001 0.0
1.2000000000000002 0.7000000000000001 0.0
1.6 0.7000000000000001 0.0
2.0 0.7000000000000001 0.0
2.4000000000000004 0.7000000000000001 0.0
2.8000000000000003 0.7000000000000001 0.0
3.2 0.7000000000000001 0.0
3.6 0.7000000000000001 0.0
4.0 0.7000000000000001 0.0
4.4 0.7000000000000001 0.0
4.800000000000001 0.7000000000000001 0.0
5.2 0.7000000000000001 0.0
5.6000000000000005 0.7000000000000001 0.0
6.0 0.7000000000000001 0.0
6.4 0.7000000000000001 0.0
6.800000000000001 0.7000000000000001 0.0
7.2 0.7000000000000001 0.0
7.6000000000000005 0.7000000000000001 0.0
8.0 0.7000000000000001 0.0
8.4 0.7000000000000001 0.0
8.8 0.7000000000000001 0.0
9.200000000000001 0.7000000000000001 0.0
9.600000000000001 0.7000000000000001 0.0
10.0 0.7000000000000001 0.0
10.4 0.7000000000000001 0.0
10.8 0.7000000000000001 0.0
11.200000000000001 0.7000000000000001 0.0
11.600000000000001 0.7000000000000001 0.0
12.0 0.7000000000000001 0.0
12.4 0.7000000000000001 0.0
12.8 0.7000000000000001 0.0
13.200000000000001 0.7000000000000001 0.0
13.600000000000001 0.7000000000000001 0.0
14.0 0.7000000000000001 0.0
14.4 0.7000000000000001 0.0
14.8 0.7000000000000001 0.0
15.200000000000001 0.7000000000000001 0.0
15.600000000000001 0.7000000000000001 0.0
16.0 0.7000000000000001 0.0
0.0 0.8 0.0
0.4 0.8 0.0
0.8 0.8 0.0
1.2000000000000002 0.8 0.0
1.6 0.8 0.0
2.0 0.8 0.0
2.4000000000000004 0.8 0.0
2.8000000000000003 0.8 0.0
3.2 0.8 0.0
3.6 0.8 0.0
4.0 0.8 0.0
4.4 0.8 0.0
4.800000000000001 0.8 0.0
5.2 0.8 0.0
5.6000000000000005 0.8 0.0
6.0 0.8 0.0
6.4 0.8 0.0
6.800000000000001 0.8 0.0
7.2 0.8 0.0
7.6000000000000005 0.8 0.0
8.0 0.8 0.0
8.4 0.8 0.0
8.8 0.8 0.0
9.200000000000001 0.8 0.0
9.600000000000001 0.8 0.0
10.0 0.8 0.0
10.4 0.8 0.0
10.8 0.8 0.0
11.200000000000001 0.8 0.0
11.600000000000001 0.8 0.0
12.0 0.8 0.0
12.4 0.8 0.0
12.8 0.8 0.0
13.200000000000001 0.8 0.0
13.600000000000001 0.8 0.0
14.0 0.8 0.0
14.4 0.8 0.0
14.8 0.8 0.0
15.200000000000001 0.8 0.0
15.600000000000001 0.8 0.0
16.0 0.8 0.0
0.0 0.9 0.0
0.4 0.9 0.0
0.8 0.9 0.0
1.2000000000000002 0.9 0.0
1.6 0.9 0.0
2.0 0.9 0.0
2.4000000000000004 0.9 0.0
2.8000000000000003 0.9 0.0
3.2 0.9 0.0
3.6 0.9 0.0
4.0 0.9 0.0
4.4 0.9 0.0
4.800000000000001 0.9 0.0
5.2 0.9 0.0
5.6000000000000005 0.9 0.0
6.0 0.9 0.0
6.4 0.9 0.0
6.800000000000001 0.9 0.0
7.2 0.9 0.0
7.6000000000000005 0.9 0.0
8.0 0.9 0.0
8.4 0.9 0.0
8.8 0.9 0.0
9.200000000000001 0.9 0.0
9.600000000000001 0.9 0.0
10.0 0.9 0.0
10.4 0.9 0.0
10.8 0.9 0.0
11.200000000000001 0.9 0.0
11.600000000000001 0.9 0.0
12.0 0.9 0.0
12.4 0.9 0.0
12.8 0.9 0.0
13.200000000000001 0.9 0.0
13.600000000000001 0.9 0.0
14.0 0.9 0.0
14.4 0.9 0.0
14.8 0.9 0.0
15.200000000000001 0.9 0.0
15.600000000000001 0.9 0.0
16.0 0.9 0.0
0.0 1.0 0.0
0.4 1.0 0.0
0.8 1.0 0.0
1.2000000000000002 1.0 0.0
1.6 1.0 0.0
2.0 1.0 0.0
2.4000000000000004 1.0 0.0
2.8000000000000003 1.0 0.0
3.2 1.0 0.0
3.6 1.0 0.0
4.0 1.0 0.0
4.4 1.0 0.0
4.800000000000001 1.0 0.0
5.2 1.0 0.0
5.6000000000000005 1.0 0.0
6.0 1.0 0.0
6.4 1.0 0.0
6.800000000000001 1.0 0.0
7.2 1.0 0.0
7.6000000000000005 1.0 0.0
8.0 1.0 0.0
8.4 1.0 0.0
8.8 1.0 0.0
9.200000000000001 1.0 0.0
9.600000000000001 1.0 0.0
10.0 1.0 0.0
10.4 1.0 0.0
10.8 1.0 0.0
11.200000000000001 1.0 0.0
11.600000000000001 1.0 0.0
12.0 1.0 0.0
12.4 1.0 0.0
12.8 1.0 0.0
13.200000000000001 1.0 0.0
13.600000000000001 1.0 0.0
14.0 1.0 0.0
14.4 1.0 0.0
14.8 1.0 0.0
15.200000000000001 1.0 0.0
15.600000000000001 1.0 0.0
16.0 1.0 0.0
0.0 1.1 0.0
0.4 1.1 0.0
0.8 1.1 0.0
1.2000000000000002 1.1 0.0
1.6 1.1 0.0
[...]
POINT_DATA 861
SCALARS Disp float 2
LOOKUP_TABLE default
0.0 0.0
0.005451341046301675 -0.21651881756611452
0.006692386748169434 -0.4243283483763437
0.007459979793212794 -0.6311825670390383
0.008429086619699799 -0.8376967568829077
0.009937607956660835 -1.043512614296134
0.012515742031283836 -1.2481594138750791
0.016795249774621518 -1.4510489088638219
0.02351483868318586 -1.6514493849176393
0.033478369514139315 -1.8484155499202304
0.047494381447680534 -2.0406768196083753
0.06634253841654082 -2.2265610292257842
0.09075907924423418 -2.4040043877547888
0.12142879083315888 -2.5706437581887127
0.15898516727051876 -2.723890130131801
0.20394464581331972 -2.860983630671373
0.25658297518451667 -2.9790593263680343
0.31678163259381664 -3.075256252274187
0.3838911965223329 -3.146910124999271
0.4566674510150016 -3.191794947227044
0.5331140368839273 -3.2083817427729064
0.6095606227528492 -3.1917949472269456
0.6823368772455036 -3.1469101249990694
0.7494464411739937 -3.0752562522738955
0.809645098583261 -2.9790593263676697
0.8622834279544226 -2.860983630670956
0.9072429064971881 -2.7238901301313447
0.9447992829345127 -2.5706437581882287
0.9754689945234015 -2.4040043877542936
0.9998855353510611 -2.2265610292252926
1.0187336923198909 -2.0406768196078997
1.0327497042534066 -1.8484155499197827
1.0427132350843404 -1.6514493849172251
1.04943282399289 -1.4510489088634482
1.0537123317362178 -1.2481594138747492
1.0562904658108347 -1.0435126142958544
1.0577989871477929 -0.837696756882678
1.0587680939742792 -0.6311825670388619
1.0595356870193222 -0.4243283483762196
1.0607767327211886 -0.21651881756604524
1.0662280737674867 0.0
0.054010610410195024 -0.002290861216544263
0.05779189099220856 -0.21674970086562734
0.05844711527453468 -0.4243896100879983
0.05913011441180672 -0.6312693408940939
0.05998496221465137 -0.8378287480431565
0.0612736457181617 -1.0437936486041144
0.06349546471590087 -1.2487324930658037
0.06724774188896888 -1.452083544497553
0.07322489885801843 -1.6531345288847596
0.0821613210732676 -1.8509432873190927
0.09477829672696729 -2.044232789845232
0.11175632110769373 -2.2313214685513505
0.13374152753265756 -2.410136851524154
0.16135779285492063 -2.578306876592519
0.19518517334402102 -2.7332268243966467
0.23570602381393047 -2.8720979594174127
0.28319131717061397 -2.9919817607990553
0.33756341617562596 -3.0899075221924206
0.3982697877474947 -3.16307221837744
0.46414664572261655 -3.2090888619863662
0.5331140368839152 -3.226139733650043
0.60208142804521 -3.2090888619862654
0.6679582860203183 -3.1630722183772337
0.7286646575921645 -3.089907522192122
0.7830367565971477 -2.9919817607986827
0.8305220499538001 -2.872097959416988
0.8710429004236776 -2.7332268243961817
0.9048702809127457 -2.578306876592027
0.932486546234977 -2.4101368515236503
0.9544717526599102 -2.231321468550851
0.9714497770406091 -2.0442327898447505
0.9840667526942858 -1.85094328731864
0.9930031749095171 -1.653134528884342
0.9989803318785533 -1.4520835444971765
1.0027326090516122 -1.248732493065472
1.004954428049346 -1.0437936486038337
1.0062431115528543 -0.8378287480429267
1.0070979593556983 -0.6312693408939175
1.0077809584929702 -0.4243896100878742
1.0084361827752961 -0.21674970086555767
1.0122174633573044 -0.0022908612165418
0.10708550839006682 -0.004101727065024361
0.10984446813426312 -0.2168630133946629
0.11022191781493411 -0.4244238878148642
0.11077985376083845 -0.6313460395664383
0.1115291430884512 -0.837935426517833
0.11262050425057217 -1.0440161616550863
0.11449323390430691 -1.249206195845636
0.11772055183134421 -1.4529689537157557
0.12294291910358032 -1.6546075519786543
0.1308281009521073 -1.8531776299554583
0.14201395804431025 -2.0473917840801703
0.157091003139209 -2.2355578903811484
0.1766178960796498 -2.415598416505416
0.20114403512965018 -2.585138110646803
0.23120027968144133 -2.741559274581245
0.2672335343326271 -2.882030405834078
0.3095181160851515 -3.003550122489397
0.35803408029157463 -3.1030510316471323
0.4123237550414875 -3.177599702317802
0.47129603402241205 -3.224622370056316
0.5331140368839036 -3.2420954228521586
0.5949320397453912 -3.224622370056213
0.6539043187263033 -3.177599702317592
0.7081939934761963 -3.103051031646828
0.7567099576825943 -3.0035501224890173
0.7989945394350916 -2.8820304058336466
0.8350277940862486 -2.7415592745807724
0.8650840386380108 -2.585138110646304
0.8896101776879831 -2.4155984165049054
0.909137070628397 -2.2355578903806417
0.924214115723271 -2.0473917840796827
0.9353999728154535 -1.8531776299550007
0.9432851546639643 -1.6546075519782328
0.9485075219361885 -1.4529689537153765
0.9517348398632179 -1.249206195845303
0.9536075695169483 -1.0440161616548052
0.9546989306790675 -0.837935426517603
0.95544822000668 -0.6313460395662619
0.9560061559525842 -0.42442388781474016
0.9563836056332552 -0.2168630133945929
0.9591425653774464 -0.004101727065019234
0.15966882550470718 -0.0055538915860949365
0.16174429405004007 -0.2169399667315331
0.161975114415865 -0.42444303937856426
0.16241191670469912 -0.6314087251379971
0.1630563489387945 -0.8380239928062725
0.16397462826855702 -1.0441874442402648
0.1655183079558098 -1.2495838342438608
0.1682260081801887 -1.4537063805679145
0.17268940299905863 -1.6558659987969035
0.1795089640462024 -1.8551138407015213
0.18924346748705959 -2.050148040269235
0.2023973934929686 -2.239265452512525
0.21944633414567669 -2.420384500260156
0.24086374849236153 -2.5911305403204747
0.2671178701620891 -2.7488786860456416
0.29862714212000546 -2.89077121326991
0.33567282831766887 -3.0137555637003732
0.37829264223616016 -3.11468095188396
0.42612981326876104 -3.1904872799918844
0.4782579356388675 -3.2384318954601015
0.5331140368838923 -3.2563306680075805
0.5879701381289132 -3.2384318954599967
0.6400982604990083 -3.19048727999167
0.6879354315315916 -3.114680951883651
0.7305552454500613 -3.0137555636999878
0.7676009316477008 -2.890771213269472
0.7991102036055919 -2.748878686045163
0.825364325275294 -2.591130540319969
0.8467817396219544 -2.420384500259638
0.8638306802746392 -2.2392654525120124
0.8769846062805265 -2.050148040268742
0.8867191097213657 -1.8551138407010594
0.8935386707684952 -1.6558659987964792
0.8980020655873546 -1.4537063805675332
0.9007097658117266 -1.2495838342435266
0.9022534454989761 -1.044187444239983
0.9031717248287374 -0.8380239928060423
0.9038161570628325 -0.6314087251378205
0.9042529593516666 -0.42444303937844025
0.9044837797174916 -0.21693996673146276
0.9065592482628198 -0.005553891586087393
0.21197057422128768 -0.0067247939903822655
0.21353814493795523 -0.21700057278075532
0.21368893996322455 -0.4244540574342404
0.21402311542225982 -0.6314574726107622
0.21456337373398812 -0.8380975450477828
0.21532783738266212 -1.0443185131106125
0.21657685768000692 -1.2498726693591178
0.21877588874771045 -1.4542984529237952
0.22248507020049588 -1.656910299032089
0.2282344995998017 -1.85674994708492
0.23650770101195456 -2.0524989487856526
0.2477280292211464 -2.2424413446940634
0.26228764251817965 -2.42449269562102
0.2805845538962397 -2.5962815803158676
0.30302772953563034 -2.7551802730119404
0.3299927007718377 -2.898313652872229
0.3617656783105174 -3.0225896561861934
0.39844396365324514 -3.1247870628061256
0.4397962183420933 -3.2017349537762
0.4851105766996277 -3.2505444183511245
0.5331140368838811 -3.268891224839231
0.5811174970681309 -3.2505444183510175
0.6264318554256549 -3.2017349537759823
0.6677841101144879 -3.1247870628058116
0.7044623954571971 -3.0225896561858026
0.736235372995856 -2.8983136528717854
0.7632003442320417 -2.755180273011456
0.7856435198714105 -2.5962815803153556
0.8039404312494495 -2.424492695620497
0.8185000445464629 -2.2424413446935456
0.8297203727556363 -2.0524989487851553
0.8379935741677736 -1.8567499470844546
0.8437430035670672 -1.6569102990316618
0.8474521850198437 -1.4542984529234122
0.8496512160875415 -1.2498726693587825
0.8509002363848838 -1.0443185131103303
0.8516647000335569 -0.8380975450475526
0.8522049583452849 -0.6314574726105857
0.8525391338043202 -0.42445405743411646
0.8526899288295896 -0.21700057278068471
0.8542574995462531 -0.00672479399037259
0.2640859696228568 -0.007663270186229437
0.2652576493742385 -0.21705158541809866
0.26536164263222606 -0.4244617169729363
0.26561072597462726 -0.6314934944922018
0.2660473799927182 -0.838158196457843
0.26667406302024865 -1.0444185447984273
0.2676609794815354 -1.2500851836968345
0.26938863164178933 -1.4547503405110846
0.27235089431977483 -1.657743202314553
0.2770356385700031 -1.8580870492915555
0.28384808543711904 -2.054444476888634
0.29313356072491603 -2.2450857527582895
0.30520468480123236 -2.4279232993584383
0.3203828848224647 -2.6005913541138894
0.3390118392807615 -2.7604641372756435
0.36143145901543394 -2.904655287715702
0.3879154394020628 -3.0300448752643394
0.41860822281786764 -3.1333588750715227
0.4534291362033243 -3.211339102356088
0.4919188324441631 -3.2609728847675687
0.5331140368838698 -3.279804032744938
0.5743092413235732 -3.26097288476746
0.6127989375644028 -3.211339102355868
0.647619850949847 -3.1333588750712047
0.6783126343656359 -3.0300448752639446
0.704796614752247 -2.904655287715253
0.7272162344869013 -2.760464137275154
0.74584518894518 -2.600591354113373
0.7610233889663949 -2.4279232993579107
0.7730945130426945 -2.2450857527577677
0.7823799883304764 -2.054444476888133
0.7891924351975793 -1.858087049291087
0.7938771794477975 -1.6577432023141234
0.7968394421257755 -1.4547503405107
0.798567094286025 -1.2500851836964988
0.7995540107473099 -1.0444185447981453
0.8001806937748399 -0.8381581964576127
0.8006173477929307 -0.6314934944920254
0.8008664311353318 -0.4244617169728124
0.8009704243933193 -0.21705158541802783
0.802142104144698 -0.00766327018621795
0.31606552150733236 -0.008406757071659313
0.316924743616789 -0.21709543610436025
0.3169980184694216 -0.42446844739682343
0.3171744285528554 -0.6315182064734494
0.31750848158124356 -0.8382066730775536
0.31800690088002814 -1.0444946870938854
0.31876115609437 -1.2502359196793547
0.3200607045974906 -1.4550757380381174
0.3223125500994146 -1.658370304734787
0.3259443515329902 -1.859129074048475
0.33130726997482846 -2.055987799133733
0.33866725970956535 -2.2472016599808686
0.3482602458533905 -2.430679860217049
0.3603328713254469 -2.6040637839403393
0.37516356391172634 -2.7647332662118926
0.393044024541508 -2.9097979278704456
0.4142358496282784 -3.0361181521608684
0.4389171378311867 -3.140386230858166
0.46714583219412004 -3.2192889132975537
0.49874857402916406 -3.269715728959799
0.5331140368838584 -3.2890802524124063
0.5674794997385497 -3.2697157289596883
0.5990822415735861 -3.219288913297331
0.627310935936509 -3.1403862308578447
0.6519922241394043 -3.0361181521604697
0.67318404922616 -2.9097979278699926
0.6910645098559268 -2.7647332662113993
0.705895202442192 -2.6040637839398193
0.7179678279142347 -2.430679860216518
0.7275608140580468 -2.2472016599803437
0.7349208037927716 -2.055987799133229
0.7402837222345994 -1.8591290740480042
0.743915523668167 -1.6583703047343556
0.7461673691700854 -1.4550757380377317
0.7474669176732026 -1.2502359196790183
0.7482211728875434 -1.044494687093603
0.7487195921863277 -0.8382066730773233
0.7490536452147156 -0.6315182064732731
0.7492300552981495 -0.4244684473966996
0.7493033301507819 -0.21709543610428925
0.7501625522602362 -0.008406757071646377
0.36794329220420013 -0.008985197389095196
0.3685558398612908 -0.21713405523260862
0.36860502753819036 -0.42447477000137807
0.36871585591571987 -0.6315329600869589
0.3689490401038793 -0.8382424379288905
0.36932045680065045 -1.0445522042869684
0.3698721844247351 -1.2503376344479165
0.370786149955574 -1.4552928350420848
0.3723799779782496 -1.6588057313608016
0.3749972407807343 -1.859883803964668
0.37893038330705225 -2.057135254473928
0.3843830390730252 -2.2487953150956734
0.3915198128482612 -2.4327694733866903
0.40051280991399524 -2.6067066937891528
0.41157102022120484 -2.7679953818922014
0.4249363377768854 -2.9137471451809516
0.44084897310360777 -3.040811040424683
0.45950314700340317 -3.1458617634130994
0.48107269942216574 -3.225566542699065
0.505674890934937 -3.2767553652123667
0.5331140368838465 -3.2967147993393686
0.5605531828327539 -3.276755365212255
0.5851553743455193 -3.2255665426988402
0.6067249267642736 -3.1458617634127752
0.6253791006640588 -3.0408110404242814
0.6412917359907699 -2.913747145180496
0.654657053546439 -2.7679953818917045
0.6657152638536381 -2.6067066937886296
0.6747082609193624 -2.432769473386156
0.6818450346945888 -2.248795315095146
0.6872976904605523 -2.0571352544734216
0.6912308329868627 -1.8598838039641952
0.6938480957893418 -1.6588057313603688
0.6954419238120134 -1.4552928350416985
0.6963558893428502 -1.2503376344475796
0.696907616966934 -1.044552204286686
0.6972790336637049 -0.8382424379286603
0.6975122178518642 -0.6315329600867824
0.6976230462293936 -0.42447477000125416
0.6976722339062932 -0.21713405523253754
0.6982847815633821 -0.008985197389081089
0.4197396340889057 -0.009427056907128917
0.4201663354874789 -0.2171690976196372
0.42018900958173905 -0.4244799016529673
0.4202379977515286 -0.6315388234940139
0.42037320270291645 -0.8382648569446495
0.4206135228158417 -1.0445930052730696
0.4209797726718294 -1.250403555281041
0.42155833250940705 -1.4554222493453348
0.4225539357945007 -1.6590718686383832
0.4242176328716896 -1.8603681034206585
0.4267647968745722 -2.0578983896757066
0.43034222438012176 -2.249877432847026
0.4350525783254123 -2.434203590127349
0.44100221962563557 -2.6085328004586934
0.4483290426401777 -2.77026300017943
0.45721407524705937 -2.9165136100773292
0.4678713187709624 -3.0441316054669643
0.48051295565753877 -3.14978338314319
0.4953624329838178 -3.2301491782394347
0.5127912743157779 -3.282056449679736
0.5331140368838342 -3.3026845692892066
0.5534367994518892 -3.2820564496796227
0.5708656407838455 -3.230149178239208
0.5857151181101183 -3.149783383142864
0.5983567549966877 -3.0441316054665606
0.6090139985205828 -2.9165136100768714
0.6178990311274567 -2.7702630001789315
0.6252258541419922 -2.608532800458168
0.6311754954422099 -2.4342035901268133
0.6358858493874939 -2.249877432846496
0.6394632768930376 -2.057898389675199
0.6420104408959154 -1.860368103420184
0.6436741379731007 -1.6590718686379498
0.6446697412581921 -1.4554222493449478
0.6452483010957684 -1.2504035552807042
0.6456145509517558 -1.044593005272787
0.6458548710646809 -0.8382648569444191
0.6459900760160686 -0.6315388234938374
0.6460390641858582 -0.4244799016528432
0.6460617382801181 -0.21716909761956615
0.6464884396786902 -0.009427056907113882
0.4714684072105445 -0.009761406584662562
0.4717640834563501 -0.21720275006619225
0.4717558194777798 -0.4244821684963184
0.471744824411465 -0.6315365752570969
0.4717850197806148 -0.8382739325301026
0.4718917108524764 -1.0446159930982062
0.4720722124817779 -1.2504421550083809
0.4723575081926111 -1.4554880248644029
0.4728262483170625 -1.659200381599669
0.4736159533410995 -1.8606119881202805
0.47484678176301376 -2.058301415740971
0.4766029878025214 -2.2504681801759068
0.47892946268570774 -2.4350013363569283
0.48187815075163243 -2.6095625183502844
0.48552219296632604 -2.7715570474990674
0.48997254272612306 -2.918115560347769
0.4954009149511802 -3.0460943422419504
0.502043016853667 -3.1521628904633654
0.5101790610265284 -3.2330206655840303
0.5202416961502824 -3.285563492427825
0.5331140368838215 -3.306940528467554
0.5459863776173601 -3.2855634924277113
0.5560490127411124 -3.233020665583803
0.5641850569139699 -3.1521628904630385
0.5708271588164526 -3.0460943422415454
0.576255531041506 -2.918115560347309
0.5807058808012996 -2.771557047498568
0.5843499230159908 -2.609562518349758
0.5872986110819133 -2.435001336356392
0.5896250859650963 -2.250468180175376
0.5913812920046015 -2.058301415740462
0.5926121204265137 -1.8606119881198058
0.5934018254505495 -1.6592003815992349
0.5938705655750001 -1.4554880248640156
0.5941558612858326 -1.250442155008044
0.594336362915134 -1.0446159930979235
0.5944430539869954 -0.8382739325298724
0.5944832493561453 -0.6315365752569205
0.5944722542898305 -0.4244821684961944
0.5944639903112602 -0.2172027500661212
0.594759666557065 -0.009761406584646883
0.5231459922394313 -0.010013011175943852
0.5233495185024784 -0.2172372784559922
0.5233103976411001 -0.42448006431602825
0.5232408711559601 -0.6315267288075902
0.5231887134396607 -0.8382698815571967
0.5231623391983132 -1.0446204499656273
0.5231523795129319 -1.250454339701094
0.5231494228932314 -1.4555088154748805
0.52314872120061 -1.6592360644051758
0.5231488468529687 -1.860674450395898
0.5231490738119537 -2.0584042614562477
0.52314861790555 -2.2506210166200877
0.523143082167456 -2.435213157468789
0.5231290247701194 -2.6098441665688146
0.5231132343736312 -2.771924370983778
0.5231415940439929 -2.9185957805492153
0.5233426155095489 -3.046735225907354
0.5239793767946429 -3.153036163631402
0.5254404441068323 -3.2342133488358678
0.5281601693586783 -3.287229365310314
0.5331140368838084 -3.3094040906936293
0.538067904408939 -3.2872293653102003
0.5407876296607845 -3.23421334883564
0.5422486969729726 -3.1530361636310746
0.5428854582580666 -3.046735225906949
0.5430864797236232 -2.918595780548755
0.5431148393939856 -2.7719243709832777
0.5430990489974985 -2.6098441665682883
0.5430849916001634 -2.435213157468252
0.5430794558620704 -2.2506210166195566
0.5430789999556676 -2.0584042614557387
0.5430792269146535 -1.8606744503954236
0.5430793525670128 -1.6592360644047417
0.5430786508743918 -1.4555088154744935
0.5430756942546912 -1.2504543397007573
0.54306573456931 -1.0446204499653444
0.5430393603279626 -0.8382698815569665
0.5429872026116633 -0.6315267288074139
0.5429176761265234 -0.4244800643159041
0.542878555265145 -0.21723727845592122
0.5430820815281918 -0.010013011175927749
0.5747834344419958 -0.010205193409944099
0.5749236479435391 -0.21727180197413073
0.5748566786332979 -0.42447345720284785
0.5747308967651549 -0.631509466538876
0.5745891445792686 -0.838253140419877
0.5744318662464044 -1.0446062975778279
0.5742323535712129 -1.250439578768648
0.5739409928389416 -1.4554874574194185
0.5734709535791944 -1.6592003403577076
0.5726816955819596 -1.8606120287890093
0.5714517447761562 -2.0583015124431263
0.5696936648546126 -2.2504668315607406
0.5673554365112344 -2.434996872708999
0.5643788203871349 -2.6095547299608235
0.5607057421868884 -2.7715559310489546
0.5563159484674617 -2.9181575348503257
0.5512830317735906 -3.0462640499666316
0.5458429349630683 -3.15260934026443
0.5404071951453884 -3.2339183950202526
0.5355807131759575 -3.28716838846481
0.5331140368837952 -3.3101834528686105
0.5306473605916326 -3.2871683884646967
0.5258208786222018 -3.2339183950200248
0.5203851388045245 -3.1526093402641027
0.5149450419940071 -3.0462640499662275
0.5099121253001415 -2.918157534849865
0.5055223315807194 -2.7715559310484545
0.5018492533804776 -2.609554729960298
0.49887263725638337 -2.4349968727084623
0.49653440891301037 -2.2504668315602103
0.4947763289914711 -2.058301512442618
0.49354637818567176 -1.8606120287885346
0.4927571201884393 -1.6592003403572737
0.4922870809286935 -1.4554874574190315
0.49199572019642285 -1.250439578768311
0.4917962075212317 -1.0446062975775452
0.49163892918836793 -0.8382531404196466
0.49149717700248174 -0.6315094665386997
0.49137139513433875 -0.42447345720272367
0.49130442582409756 -0.21727180197405976
0.49144463932564075 -0.01020519340992781
0.6263944659415646 -0.010352793888572985
0.6264907047223529 -0.2173043075679386
0.6263987237351725 -0.4244627457099492
0.6262198542990975 -0.6314850322638684
0.6259919933288268 -0.8382243175799567
0.6257069420308032 -1.04457392175764
0.6253230249468668 -1.2503983962388754
0.6247389121349537 -1.4554210247082726
0.6237427104192738 -1.6590718266649296
0.62208032570418 -1.860368366565592
0.6195336508938252 -2.057898314822595
0.6159535770582568 -2.249874472739433
0.6112326717089981 -2.43419432280652
0.6052591921708187 -2.608517137765968
0.5979087497687425 -2.7702613434791674
0.5890836918757731 -2.9165993583939773
0.5787958137670483 -3.0444703717187007
0.5672459505654058 -3.150657142005862
0.5548962148162604 -3.2319404214044005
0.5427993296611642 -3.285486279955792