# vtk DataFile Version 3.0
Some data
ASCII
DATASET UNSTRUCTURED_GRID
POINTS 861 float
0.0 0.0 0.0
0.4 0.0 0.0
0.8 0.0 0.0
1.2000000000000002 0.0 0.0
1.6 0.0 0.0
2.0 0.0 0.0
2.4000000000000004 0.0 0.0
2.8000000000000003 0.0 0.0
3.2 0.0 0.0
3.6 0.0 0.0
4.0 0.0 0.0
4.4 0.0 0.0
4.800000000000001 0.0 0.0
5.2 0.0 0.0
5.6000000000000005 0.0 0.0
6.0 0.0 0.0
6.4 0.0 0.0
6.800000000000001 0.0 0.0
7.2 0.0 0.0
7.6000000000000005 0.0 0.0
8.0 0.0 0.0
8.4 0.0 0.0
8.8 0.0 0.0
9.200000000000001 0.0 0.0
9.600000000000001 0.0 0.0
10.0 0.0 0.0
10.4 0.0 0.0
10.8 0.0 0.0
11.200000000000001 0.0 0.0
11.600000000000001 0.0 0.0
12.0 0.0 0.0
12.4 0.0 0.0
12.8 0.0 0.0
13.200000000000001 0.0 0.0
13.600000000000001 0.0 0.0
14.0 0.0 0.0
14.4 0.0 0.0
14.8 0.0 0.0
15.200000000000001 0.0 0.0
15.600000000000001 0.0 0.0
16.0 0.0 0.0
0.0 0.1 0.0
0.4 0.1 0.0
0.8 0.1 0.0
1.2000000000000002 0.1 0.0
1.6 0.1 0.0
2.0 0.1 0.0
2.4000000000000004 0.1 0.0
2.8000000000000003 0.1 0.0
3.2 0.1 0.0
3.6 0.1 0.0
4.0 0.1 0.0
4.4 0.1 0.0
4.800000000000001 0.1 0.0
5.2 0.1 0.0
5.6000000000000005 0.1 0.0
6.0 0.1 0.0
6.4 0.1 0.0
6.800000000000001 0.1 0.0
7.2 0.1 0.0
7.6000000000000005 0.1 0.0
8.0 0.1 0.0
8.4 0.1 0.0
8.8 0.1 0.0
9.200000000000001 0.1 0.0
9.600000000000001 0.1 0.0
10.0 0.1 0.0
10.4 0.1 0.0
10.8 0.1 0.0
11.200000000000001 0.1 0.0
11.600000000000001 0.1 0.0
12.0 0.1 0.0
12.4 0.1 0.0
12.8 0.1 0.0
13.200000000000001 0.1 0.0
13.600000000000001 0.1 0.0
14.0 0.1 0.0
14.4 0.1 0.0
14.8 0.1 0.0
15.200000000000001 0.1 0.0
15.600000000000001 0.1 0.0
16.0 0.1 0.0
0.0 0.2 0.0
0.4 0.2 0.0
0.8 0.2 0.0
1.2000000000000002 0.2 0.0
1.6 0.2 0.0
2.0 0.2 0.0
2.4000000000000004 0.2 0.0
2.8000000000000003 0.2 0.0
3.2 0.2 0.0
3.6 0.2 0.0
4.0 0.2 0.0
4.4 0.2 0.0
4.800000000000001 0.2 0.0
5.2 0.2 0.0
5.6000000000000005 0.2 0.0
6.0 0.2 0.0
6.4 0.2 0.0
6.800000000000001 0.2 0.0
7.2 0.2 0.0
7.6000000000000005 0.2 0.0
8.0 0.2 0.0
8.4 0.2 0.0
8.8 0.2 0.0
9.200000000000001 0.2 0.0
9.600000000000001 0.2 0.0
10.0 0.2 0.0
10.4 0.2 0.0
10.8 0.2 0.0
11.200000000000001 0.2 0.0
11.600000000000001 0.2 0.0
12.0 0.2 0.0
12.4 0.2 0.0
12.8 0.2 0.0
13.200000000000001 0.2 0.0
13.600000000000001 0.2 0.0
14.0 0.2 0.0
14.4 0.2 0.0
14.8 0.2 0.0
15.200000000000001 0.2 0.0
15.600000000000001 0.2 0.0
16.0 0.2 0.0
0.0 0.30000000000000004 0.0
0.4 0.30000000000000004 0.0
0.8 0.30000000000000004 0.0
1.2000000000000002 0.30000000000000004 0.0
1.6 0.30000000000000004 0.0
2.0 0.30000000000000004 0.0
2.4000000000000004 0.30000000000000004 0.0
2.8000000000000003 0.30000000000000004 0.0
3.2 0.30000000000000004 0.0
3.6 0.30000000000000004 0.0
4.0 0.30000000000000004 0.0
4.4 0.30000000000000004 0.0
4.800000000000001 0.30000000000000004 0.0
5.2 0.30000000000000004 0.0
5.6000000000000005 0.30000000000000004 0.0
6.0 0.30000000000000004 0.0
6.4 0.30000000000000004 0.0
6.800000000000001 0.30000000000000004 0.0
7.2 0.30000000000000004 0.0
7.6000000000000005 0.30000000000000004 0.0
8.0 0.30000000000000004 0.0
8.4 0.30000000000000004 0.0
8.8 0.30000000000000004 0.0
9.200000000000001 0.30000000000000004 0.0
9.600000000000001 0.30000000000000004 0.0
10.0 0.30000000000000004 0.0
10.4 0.30000000000000004 0.0
10.8 0.30000000000000004 0.0
11.200000000000001 0.30000000000000004 0.0
11.600000000000001 0.30000000000000004 0.0
12.0 0.30000000000000004 0.0
12.4 0.30000000000000004 0.0
12.8 0.30000000000000004 0.0
13.200000000000001 0.30000000000000004 0.0
13.600000000000001 0.30000000000000004 0.0
14.0 0.30000000000000004 0.0
14.4 0.30000000000000004 0.0
14.8 0.30000000000000004 0.0
15.200000000000001 0.30000000000000004 0.0
15.600000000000001 0.30000000000000004 0.0
16.0 0.30000000000000004 0.0
0.0 0.4 0.0
0.4 0.4 0.0
0.8 0.4 0.0
1.2000000000000002 0.4 0.0
1.6 0.4 0.0
2.0 0.4 0.0
2.4000000000000004 0.4 0.0
2.8000000000000003 0.4 0.0
3.2 0.4 0.0
3.6 0.4 0.0
4.0 0.4 0.0
4.4 0.4 0.0
4.800000000000001 0.4 0.0
5.2 0.4 0.0
5.6000000000000005 0.4 0.0
6.0 0.4 0.0
6.4 0.4 0.0
6.800000000000001 0.4 0.0
7.2 0.4 0.0
7.6000000000000005 0.4 0.0
8.0 0.4 0.0
8.4 0.4 0.0
8.8 0.4 0.0
9.200000000000001 0.4 0.0
9.600000000000001 0.4 0.0
10.0 0.4 0.0
10.4 0.4 0.0
10.8 0.4 0.0
11.200000000000001 0.4 0.0
11.600000000000001 0.4 0.0
12.0 0.4 0.0
12.4 0.4 0.0
12.8 0.4 0.0
13.200000000000001 0.4 0.0
13.600000000000001 0.4 0.0
14.0 0.4 0.0
14.4 0.4 0.0
14.8 0.4 0.0
15.200000000000001 0.4 0.0
15.600000000000001 0.4 0.0
16.0 0.4 0.0
0.0 0.5 0.0
0.4 0.5 0.0
0.8 0.5 0.0
1.2000000000000002 0.5 0.0
1.6 0.5 0.0
2.0 0.5 0.0
2.4000000000000004 0.5 0.0
2.8000000000000003 0.5 0.0
3.2 0.5 0.0
3.6 0.5 0.0
4.0 0.5 0.0
4.4 0.5 0.0
4.800000000000001 0.5 0.0
5.2 0.5 0.0
5.6000000000000005 0.5 0.0
6.0 0.5 0.0
6.4 0.5 0.0
6.800000000000001 0.5 0.0
7.2 0.5 0.0
7.6000000000000005 0.5 0.0
8.0 0.5 0.0
8.4 0.5 0.0
8.8 0.5 0.0
9.200000000000001 0.5 0.0
9.600000000000001 0.5 0.0
10.0 0.5 0.0
10.4 0.5 0.0
10.8 0.5 0.0
11.200000000000001 0.5 0.0
11.600000000000001 0.5 0.0
12.0 0.5 0.0
12.4 0.5 0.0
12.8 0.5 0.0
13.200000000000001 0.5 0.0
13.600000000000001 0.5 0.0
14.0 0.5 0.0
14.4 0.5 0.0
14.8 0.5 0.0
15.200000000000001 0.5 0.0
15.600000000000001 0.5 0.0
16.0 0.5 0.0
0.0 0.6000000000000001 0.0
0.4 0.6000000000000001 0.0
0.8 0.6000000000000001 0.0
1.2000000000000002 0.6000000000000001 0.0
1.6 0.6000000000000001 0.0
2.0 0.6000000000000001 0.0
2.4000000000000004 0.6000000000000001 0.0
2.8000000000000003 0.6000000000000001 0.0
3.2 0.6000000000000001 0.0
3.6 0.6000000000000001 0.0
4.0 0.6000000000000001 0.0
4.4 0.6000000000000001 0.0
4.800000000000001 0.6000000000000001 0.0
5.2 0.6000000000000001 0.0
5.6000000000000005 0.6000000000000001 0.0
6.0 0.6000000000000001 0.0
6.4 0.6000000000000001 0.0
6.800000000000001 0.6000000000000001 0.0
7.2 0.6000000000000001 0.0
7.6000000000000005 0.6000000000000001 0.0
8.0 0.6000000000000001 0.0
8.4 0.6000000000000001 0.0
8.8 0.6000000000000001 0.0
9.200000000000001 0.6000000000000001 0.0
9.600000000000001 0.6000000000000001 0.0
10.0 0.6000000000000001 0.0
10.4 0.6000000000000001 0.0
10.8 0.6000000000000001 0.0
11.200000000000001 0.6000000000000001 0.0
11.600000000000001 0.6000000000000001 0.0
12.0 0.6000000000000001 0.0
12.4 0.6000000000000001 0.0
12.8 0.6000000000000001 0.0
13.200000000000001 0.6000000000000001 0.0
13.600000000000001 0.6000000000000001 0.0
14.0 0.6000000000000001 0.0
14.4 0.6000000000000001 0.0
14.8 0.6000000000000001 0.0
15.200000000000001 0.6000000000000001 0.0
15.600000000000001 0.6000000000000001 0.0
16.0 0.6000000000000001 0.0
0.0 0.7000000000000001 0.0
0.4 0.7000000000000001 0.0
0.8 0.7000000000000001 0.0
1.2000000000000002 0.7000000000000001 0.0
1.6 0.7000000000000001 0.0
2.0 0.7000000000000001 0.0
2.4000000000000004 0.7000000000000001 0.0
2.8000000000000003 0.7000000000000001 0.0
3.2 0.7000000000000001 0.0
3.6 0.7000000000000001 0.0
4.0 0.7000000000000001 0.0
4.4 0.7000000000000001 0.0
4.800000000000001 0.7000000000000001 0.0
5.2 0.7000000000000001 0.0
5.6000000000000005 0.7000000000000001 0.0
6.0 0.7000000000000001 0.0
6.4 0.7000000000000001 0.0
6.800000000000001 0.7000000000000001 0.0
7.2 0.7000000000000001 0.0
7.6000000000000005 0.7000000000000001 0.0
8.0 0.7000000000000001 0.0
8.4 0.7000000000000001 0.0
8.8 0.7000000000000001 0.0
9.200000000000001 0.7000000000000001 0.0
9.600000000000001 0.7000000000000001 0.0
10.0 0.7000000000000001 0.0
10.4 0.7000000000000001 0.0
10.8 0.7000000000000001 0.0
11.200000000000001 0.7000000000000001 0.0
11.600000000000001 0.7000000000000001 0.0
12.0 0.7000000000000001 0.0
12.4 0.7000000000000001 0.0
12.8 0.7000000000000001 0.0
13.200000000000001 0.7000000000000001 0.0
13.600000000000001 0.7000000000000001 0.0
14.0 0.7000000000000001 0.0
14.4 0.7000000000000001 0.0
14.8 0.7000000000000001 0.0
15.200000000000001 0.7000000000000001 0.0
15.600000000000001 0.7000000000000001 0.0
16.0 0.7000000000000001 0.0
0.0 0.8 0.0
0.4 0.8 0.0
0.8 0.8 0.0
1.2000000000000002 0.8 0.0
1.6 0.8 0.0
2.0 0.8 0.0
2.4000000000000004 0.8 0.0
2.8000000000000003 0.8 0.0
3.2 0.8 0.0
3.6 0.8 0.0
4.0 0.8 0.0
4.4 0.8 0.0
4.800000000000001 0.8 0.0
5.2 0.8 0.0
5.6000000000000005 0.8 0.0
6.0 0.8 0.0
6.4 0.8 0.0
6.800000000000001 0.8 0.0
7.2 0.8 0.0
7.6000000000000005 0.8 0.0
8.0 0.8 0.0
8.4 0.8 0.0
8.8 0.8 0.0
9.200000000000001 0.8 0.0
9.600000000000001 0.8 0.0
10.0 0.8 0.0
10.4 0.8 0.0
10.8 0.8 0.0
11.200000000000001 0.8 0.0
11.600000000000001 0.8 0.0
12.0 0.8 0.0
12.4 0.8 0.0
12.8 0.8 0.0
13.200000000000001 0.8 0.0
13.600000000000001 0.8 0.0
14.0 0.8 0.0
14.4 0.8 0.0
14.8 0.8 0.0
15.200000000000001 0.8 0.0
15.600000000000001 0.8 0.0
16.0 0.8 0.0
0.0 0.9 0.0
0.4 0.9 0.0
0.8 0.9 0.0
1.2000000000000002 0.9 0.0
1.6 0.9 0.0
2.0 0.9 0.0
2.4000000000000004 0.9 0.0
2.8000000000000003 0.9 0.0
3.2 0.9 0.0
3.6 0.9 0.0
4.0 0.9 0.0
4.4 0.9 0.0
4.800000000000001 0.9 0.0
5.2 0.9 0.0
5.6000000000000005 0.9 0.0
6.0 0.9 0.0
6.4 0.9 0.0
6.800000000000001 0.9 0.0
7.2 0.9 0.0
7.6000000000000005 0.9 0.0
8.0 0.9 0.0
8.4 0.9 0.0
8.8 0.9 0.0
9.200000000000001 0.9 0.0
9.600000000000001 0.9 0.0
10.0 0.9 0.0
10.4 0.9 0.0
10.8 0.9 0.0
11.200000000000001 0.9 0.0
11.600000000000001 0.9 0.0
12.0 0.9 0.0
12.4 0.9 0.0
12.8 0.9 0.0
13.200000000000001 0.9 0.0
13.600000000000001 0.9 0.0
14.0 0.9 0.0
14.4 0.9 0.0
14.8 0.9 0.0
15.200000000000001 0.9 0.0
15.600000000000001 0.9 0.0
16.0 0.9 0.0
0.0 1.0 0.0
0.4 1.0 0.0
0.8 1.0 0.0
1.2000000000000002 1.0 0.0
1.6 1.0 0.0
2.0 1.0 0.0
2.4000000000000004 1.0 0.0
2.8000000000000003 1.0 0.0
3.2 1.0 0.0
3.6 1.0 0.0
4.0 1.0 0.0
4.4 1.0 0.0
4.800000000000001 1.0 0.0
5.2 1.0 0.0
5.6000000000000005 1.0 0.0
6.0 1.0 0.0
6.4 1.0 0.0
6.800000000000001 1.0 0.0
7.2 1.0 0.0
7.6000000000000005 1.0 0.0
8.0 1.0 0.0
8.4 1.0 0.0
8.8 1.0 0.0
9.200000000000001 1.0 0.0
9.600000000000001 1.0 0.0
10.0 1.0 0.0
10.4 1.0 0.0
10.8 1.0 0.0
11.200000000000001 1.0 0.0
11.600000000000001 1.0 0.0
12.0 1.0 0.0
12.4 1.0 0.0
12.8 1.0 0.0
13.200000000000001 1.0 0.0
13.600000000000001 1.0 0.0
14.0 1.0 0.0
14.4 1.0 0.0
14.8 1.0 0.0
15.200000000000001 1.0 0.0
15.600000000000001 1.0 0.0
16.0 1.0 0.0
0.0 1.1 0.0
0.4 1.1 0.0
0.8 1.1 0.0
1.2000000000000002 1.1 0.0
1.6 1.1 0.0
[...]
POINT_DATA 861
SCALARS Disp float 2
LOOKUP_TABLE default
0.0 0.0
0.005859346631710567 -0.25570783687705906
0.00720038966535577 -0.5021322841639495
0.007988480806615563 -0.7474932506895144
0.009010790523289488 -0.9924839527586428
0.010675334717675816 -1.236685701476503
0.013615531917433222 -1.479540412448462
0.01860641291592174 -1.7203449380830897
0.026560871660052755 -1.9582197018480128
0.03847427839065107 -2.192018217171409
0.055339806944345586 -2.4201929491564558
0.07809205264629109 -2.6407153252484004
0.10758075922719523 -2.8511043535736116
0.14456192647717286 -3.0485432945867137
0.18969438958544188 -3.2299643324845655
0.24347214006942156 -3.3921158127416504
0.3061021841949778 -3.5316486199948387
0.3773580190218325 -3.6452555429349376
0.45645470719452863 -3.7298976475897443
0.5419978481166302 -3.7830518573541587
0.631772353040069 -3.803004621067572
0.7215468579635022 -3.783051857354039
0.8070899988855856 -3.729897647589502
0.8861866870582509 -3.6452555429345868
0.9574425218850657 -3.531648619994398
1.0200725660105785 -3.3921158127411473
1.073850316494515 -3.229964332484015
1.1189827796027407 -3.0485432945861293
1.1559639468526757 -2.851104353573014
1.1854526534335381 -2.640715325247807
1.2082048991354468 -2.420192949155883
1.225070427689111 -2.19201821717087
1.2369838344196848 -1.958219701847515
1.2449382931637987 -1.7203449380826412
1.2499291741622756 -1.4795404124480662
1.2528693713620254 -1.2366857014761676
1.2545339155564084 -0.9924839527583681
1.2555562252730814 -0.7474932506893044
1.256344316414341 -0.5021322841638024
1.2576853594479847 -0.25570783687697796
1.263544706079692 0.0
0.06378259701545849 -0.0024346441335345195
0.06788689484717164 -0.2559777574882862
0.06858532482745637 -0.5021945280844945
0.0692835389501927 -0.747583280524184
0.07017925001842165 -0.9926314805528873
0.07159297394282663 -1.2370144744662632
0.0741201258526856 -1.480225005414104
0.07849254363307649 -1.7215940648971828
0.08556758262820367 -1.9602666675124907
0.09625418880167386 -2.195100751010385
0.11143856965636294 -2.424537686414289
0.1319393973264837 -2.646530705440831
0.15850577826191592 -2.8585800111391566
0.19182499368512354 -3.0578493855541926
0.2324987113626088 -3.241243931974113
0.28098773562752044 -3.4054619364482015
0.33750264262626983 -3.5470707882069754
0.4018735578580407 -3.662645833801953
0.4734296603288262 -3.7490034042839904
0.5508474747815508 -3.8034499286294134
0.6317723530400542 -3.8239372448761735
0.7126972312985521 -3.803449928629291
0.7901150457512599 -3.7490034042837417
0.8616711482220185 -3.6626458338015935
0.9260420634537546 -3.547070788206525
0.9825569704524655 -3.405461936447688
1.0310459947173378 -3.2412439319735515
1.0717197123947841 -3.0578493855535984
1.1050389278179533 -2.8585800111385486
1.1316053087533482 -2.6465307054402287
1.1521061364234357 -2.4245376864137085
1.167290517278097 -2.19510075100984
1.1779771234515453 -1.9602666675119884
1.1850521624466568 -1.7215940648967305
1.1894245802270371 -1.4802250054137063
1.1919517321368898 -1.2370144744659268
1.1933654560612919 -0.9926314805526124
1.1942611671295202 -0.7475832805239739
1.1949593812522565 -0.5021945280843474
1.1956578112325411 -0.25597775748820467
1.1997621090642487 -0.0024346441335320254
0.12657686026181475 -0.004369325005237558
0.1295903217420065 -0.2561118865040082
0.12999005886153073 -0.5022271463862292
0.13055948797457975 -0.7476625234924943
0.1313386241233464 -0.9927489266937234
0.1325269702616752 -1.2372745829342566
0.13465116975653973 -1.4807920507690298
0.1384080252579755 -1.72266576007129
0.14458840280682309 -1.9620597036275693
0.15401765680891613 -2.197829695557075
0.1674800542904526 -2.4284021539294955
0.18568832894689347 -2.651712224830585
0.20929317085143584 -2.8652462453624286
0.23890090004180553 -3.0661549443757514
0.2750603990474538 -3.2513202659138356
0.318200361545763 -3.4173981825512034
0.36854533025966985 -3.560885203847089
0.4259985490220971 -3.6782531161410086
0.48999347958588385 -3.7661795307664603
0.559273931517075 -3.821765821219945
0.6317723530400399 -3.8427346575223855
0.7042707745629997 -3.82176582121982
0.7735512264941755 -3.7661795307662063
0.8375461570579383 -3.6782531161406418
0.8949993758203355 -3.56088520384663
0.9453443445342085 -3.417398182550681
0.9884843070324825 -3.2513202659132654
1.024643806038096 -3.066154944375149
1.0542515352284312 -2.865246245361812
1.077856377132941 -2.651712224829975
1.0960646517893522 -2.428402153928908
1.109527049270864 -2.1978296955565244
1.1189563032729373 -1.9620597036270626
1.1251366808217707 -1.7226657600708348
1.128893536323197 -1.4807920507686303
1.1310177358180564 -1.2372745829339196
1.132206081956383 -0.9927489266934483
1.1329852181051492 -0.747662523492284
1.1335546472181983 -0.5022271463860822
1.1339543843377224 -0.25611188650392624
1.1369678458179087 -0.004369325005232316
0.18884928481674926 -0.005925017008529749
0.19112904598141686 -0.2562033613188232
0.19137264602151194 -0.5022451055555393
0.19181803081911192 -0.74772650089444
0.19248394715000777 -0.9928444221780606
0.1934740157229357 -1.2374741639276703
0.19521869845020465 -1.481245599723737
0.19836741831430005 -1.7235610999908475
0.2036480311435167 -1.9635954638861481
0.21180212504260362 -2.200198802864649
0.22351681547171276 -2.4317786546530518
0.23940317842988415 -2.656252627586057
0.2600177748485868 -2.8710956226978257
0.28588472645730223 -3.0734501113054042
0.31748877577474727 -3.2601817105682014
0.35523363360213694 -3.4279125029124358
0.3993618859018221 -3.573081430628602
0.44984868884744955 -3.692070071713116
0.5062395768773328 -3.7814187359277636
0.5674641331894759 -3.838045644419892
0.631772353040026 -3.8595006955476525
0.6960805728905716 -3.8380456444197644
0.7573051292027009 -3.7814187359275055
0.8136960172325627 -3.692070071712743
0.864182820178164 -3.573081430628136
0.9083110724778197 -3.427912502911906
0.9460559303051784 -3.260181710567623
0.9776599796225929 -3.073450111304793
1.003526931231278 -2.8710956226972018
1.0241415276499524 -2.65625262758544
1.040027890608098 -2.4317786546524576
1.0517425810371854 -2.2001988028640933
1.0598966749362548 -1.9635954638856377
1.0651772877654588 -1.7235610999903899
1.0683260076295464 -1.481245599723336
1.0700706903568111 -1.2374741639273326
1.0710607589297374 -0.9928444221777853
1.0717266752606331 -0.7477265008942298
1.0721720600582332 -0.5022451055553921
1.0724156600983281 -0.2562033613187409
1.074695421262991 -0.005925017008522001
0.25082415506250844 -0.007182744523238287
0.2525550971567033 -0.2562744774862539
0.252713950622023 -0.5022554152309392
0.25305490815889026 -0.7477760992697196
0.2536115112926081 -0.9929221138649468
0.25442634251868196 -1.2376251483344842
0.2558295360526685 -1.4815937621188549
0.25838437294201366 -1.7242830212838423
0.2627714082405488 -1.964874069991167
0.2696451210206003 -2.2022053511953064
0.2795998425901561 -2.4346633929843096
0.29314966435018386 -2.660147483714153
0.31075657173367893 -2.8761236652563382
0.33286368844567293 -3.079729988361836
0.3598953642103235 -3.26782129573644
0.3922168963888364 -3.436996017168251
0.43008516587097245 -3.583648705704664
0.47354932966765406 -3.704084110109782
0.5223012030114206 -3.7947221765836763
0.575514685467366 -3.852324079323448
0.6317723530400124 -3.87429230368802
0.6880300206126546 -3.852324079323319
0.7412435030685877 -3.794722176583414
0.7899953764123352 -3.7040841101094033
0.8334595402089946 -3.583648705704192
0.8713278096911051 -3.436996017167714
0.9036493418695911 -3.267821295735854
0.9306810176342154 -3.0797299883612186
0.9527881343461837 -2.876123665255707
0.9703950417296545 -2.660147483713529
0.9839448634896606 -2.43466339298371
0.9938995850591975 -2.2022053511947464
1.000773297839234 -1.964874069990653
1.0051603331377583 -1.7242830212833824
1.007715170027097 -1.4815937621184525
1.0091183635610803 -1.2376251483341463
1.009933194787153 -0.9929221138646717
1.010489797920871 -0.7477760992695093
1.010830755457738 -0.5022554152307922
1.0109896089230577 -0.25627447748617127
1.0127205510172483 -0.0071827445232283075
0.3126025809870753 -0.008193590727194342
0.3139025184558191 -0.2563328703565331
0.31401216569346835 -0.5022628051008761
0.3142670670656056 -0.747812862619863
0.3147171065803167 -0.9929851793618113
0.3153778545386273 -1.2377381880723695
0.31647644884029436 -1.4818499812665409
0.3184790388289227 -1.724837581334215
0.3219835803509861 -1.9658985215459281
0.32758426458686035 -2.2038503632803663
0.3357801844336105 -2.437055962264592
0.34699139591673084 -2.6633961332838183
0.3615887725697415 -2.8803293797196554
0.37993317513465186 -3.0849931691283508
0.4023843064794025 -3.2742374599373187
0.4292751858880901 -3.444644339256006
0.46085811917011543 -3.592576909242339
0.4972455811828341 -3.7142826097569
0.5383066866020649 -3.806086873115022
0.5835040614098097 -3.864618572702531
0.6317723530399986 -3.887143242143981
0.680040644670184 -3.8646185727023994
0.7252380194779177 -3.806086873114756
0.7662991248971327 -3.7142826097565163
0.8026865869098326 -3.5925769092418616
0.8342695201918361 -3.4446443392554635
0.861160399600501 -3.2742374599367268
0.88361153094523 -3.0849931691277277
0.9019559335101189 -2.8803293797190186
0.9165533101631096 -2.6633961332831886
0.9277645216462116 -2.4370559622639885
0.935960441492946 -2.2038503632798023
0.941561125728808 -1.9658985215454117
0.9450656672508625 -1.7248375813337533
0.9470682572394857 -1.4818499812661377
0.9481668515411503 -1.2377381880720313
0.9488275994994604 -0.9929851793615361
0.9492776390141713 -0.7478128626196527
0.9495325403863085 -0.5022628051007291
0.9496421876239577 -0.25633287035645025
0.9509421250926982 -0.008193590727182476
0.37423757602372554 -0.008996627220874217
0.3751946713014645 -0.2563814872546956
0.3752724990822454 -0.5022696642551598
0.3754542888778876 -0.7478382472200296
0.37579950080115393 -0.9930353197004341
0.3763210179168332 -1.237822214627221
0.37715035578197414 -1.4820303279043006
0.3786495199460149 -1.7252394168401823
0.38131353105871113 -1.9666753518621178
0.3856580355482066 -2.205138331298951
0.39210980255512207 -2.4389598765959666
0.4009942601258004 -2.66600158754081
0.41259333438935175 -2.883715879928094
0.42718706683801627 -3.089242691199771
0.4450703069594133 -3.279432194610448
0.46653322581849427 -3.450857820070228
0.4918217079071658 -3.5998606697589266
0.5210962492100648 -3.722652999737602
0.5543957424063495 -3.815501057259224
0.5915106795623144 -3.87492913445184
0.6317723530399844 -3.8980681056542994
0.6720340265176521 -3.8749291344517065
0.7091489636736074 -3.8155010572589547
0.7424484568698793 -3.7226529997372144
0.7717229981727626 -3.5998606697584448
0.7970114802614164 -3.4508578200696807
0.8184743991204789 -3.2794321946098517
0.8363576392418587 -3.0892426911991424
0.8509513716905066 -2.8837158799274523
0.8625504459540421 -2.666001587540176
0.8714349035247057 -2.438959876595359
0.8778866705316087 -2.205138331298384
0.8822311750210944 -1.966675351861599
0.884895186133784 -1.725239416839719
0.8863943502978209 -1.482030327903897
0.8872236881629603 -1.2378222146268825
0.887745205278639 -0.9930353197001589
0.8880904172019052 -0.7478382472198193
0.8882722069975473 -0.5022696642550128
0.8883500347783282 -0.2563814872546126
0.8893071300560645 -0.008996627220860792
0.43576453833216733 -0.009623275690443966
0.4364490060206431 -0.256422584570849
0.4365024741339293 -0.5022764966779598
0.4366184346094929 -0.7478535508054336
0.4368603497602797 -0.9930725150552144
0.43724823263723694 -1.2378841289023923
0.43784566698999455 -1.4821501191127258
0.438891444724544 -1.725508344694024
0.4407745646652282 -1.967219894331896
0.44390867517571697 -2.2060782764238844
0.4486429729696024 -2.44038251848924
0.4552244359393842 -2.667970950532554
0.46385181795884256 -2.886290772997799
0.47472329933571095 -3.092486273122688
0.4880639458587523 -3.283412598640397
0.5041207123815575 -3.4556413599204636
0.5231258685119607 -3.6055001395462343
0.5452647896960977 -3.7291850853305197
0.5707202200854157 -3.8229438402551086
0.5996232683277506 -3.883236636299662
0.63177235303997 -3.9070620193520478
0.663921437752188 -3.8832366362995265
0.6928244859945156 -3.8229438402548364
0.7182799163838236 -3.729185085330129
0.740418837567948 -3.605500139545749
0.7594239936983376 -3.455641359919912
0.7754807602211287 -3.283412598639797
0.7888214067441573 -3.092486273122056
0.7996928881210137 -2.886290772997154
0.8083202701404604 -2.6679709505319167
0.8149017331102311 -2.4403825184886303
0.8196360309041073 -2.206078276423315
0.8227701414145892 -1.9672198943313757
0.8246532613552686 -1.7255083446935595
0.8256990390898155 -1.4821501191123216
0.8262964734425721 -1.2378841289020537
0.826684356319529 -0.9930725150549393
0.8269262714703157 -0.7478535508052234
0.8270422319458793 -0.5022764966778128
0.8270957000591653 -0.25642258457076583
0.8277801677476393 -0.009623275690429303
0.49720514776625263 -0.010103058625028404
0.4976817215843634 -0.2564581731516247
0.49770902422328295 -0.502282481849093
0.4977627365421593 -0.7478598019782983
0.49790386266086845 -0.9930960956742072
0.49815582578240997 -1.2379274935895184
0.4985471589054939 -1.4822253703202326
0.499199115326747 -1.7256679646428956
0.5003710127339189 -1.967556362444815
0.5023651929808318 -2.206688584137589
0.5054354263323927 -2.4413371089423457
0.5097552054709222 -2.6693165432577133
0.5154490838456377 -2.8880669236343923
0.5226410653515728 -3.0947374222959074
0.5314832774851054 -3.286191143317287
0.5421677443727919 -3.4590053644544065
0.5549136545702209 -3.6095032668719766
0.5699315368266978 -3.7338745662846864
0.5874652970182574 -3.828387129848438
0.6079533341065404 -3.889500274698111
0.6317723530399554 -3.914098268143987
0.6555913719733691 -3.8895002746979745
0.6760794090616475 -3.8283871298481644
0.6936131692531998 -3.733874566284293
0.7086310515096679 -3.6095032668714895
0.7213769617070872 -3.4590053644538523
0.7320614285947644 -3.286191143316684
0.740903640728289 -3.0947374222952733
0.7480956222342166 -2.8880669236337453
0.753789500608925 -2.669316543257074
0.7581092797474472 -2.4413371089417337
0.7611795130990019 -2.2066885841370185
0.7631736933459109 -1.9675563624442933
0.7643455907530797 -1.7256679646424307
0.7649975471743314 -1.4822253703198285
0.7653888802974149 -1.2379274935891795
0.7656408434189561 -0.9930960956739319
0.7657819695376652 -0.7478598019780881
0.7658356818565416 -0.502282481848946
0.765862984495461 -0.2564581731515416
0.7663395583135705 -0.010103058625012777
0.5585747470593525 -0.010465635591935816
0.5589023628383772 -0.2564908069422009
0.5588985496630268 -0.5022858327952395
0.5588913142493043 -0.7478577613273916
0.5589345248667247 -0.9931058472558923
0.5590469849605659 -1.2379521267259417
0.5592396630159769 -1.4822680189592574
0.559554338201933 -1.7257465841567718
0.5600988180029456 -1.9677197768526993
0.5610447649880286 -2.207001263782955
0.5625315541287488 -2.4418496486965284
0.5646553804791942 -2.6700605302129667
0.567469698946312 -2.889065444194734
0.5710347249623997 -3.096018188619969
0.5754342976902527 -3.2877894952472215
0.5807942475381153 -3.4609678025756585
0.5873050099315595 -3.611885047280328
0.5952205576716514 -3.73673339892432
0.6048369514620549 -3.8318087288824887
0.6166720316537941 -3.8936537974377994
0.6317723530399402 -3.919118979422038
0.6468726744260856 -3.893653797437662
0.6587077546178233 -3.831808728882214
0.668324148408222 -3.7367333989239246
0.6762396961483083 -3.611885047279839
0.6827504585417481 -3.460967802575102
0.6881104083896062 -3.287789495246617
0.6925099811174562 -3.0960181886193334
0.6960750071335409 -2.8890654441940855
0.6988893256006556 -2.6700605302123264
0.7010131519510979 -2.441849648695915
0.7024999410918156 -2.207001263782383
0.7034458880768969 -1.9677197768521772
0.7039903678779081 -1.7257465841563069
0.7043050430638637 -1.482268018958853
0.7044977211192744 -1.2379521267256028
0.7046101812131158 -0.993105847255617
0.7046533918305361 -0.7478577613271814
0.7046461564168136 -0.5022858327950924
0.7046423432414629 -0.2564908069421178
0.704969959020487 -0.010465635591919467
0.6198904619096081 -0.010736694991930784
0.6201131513553073 -0.2565233828212815
0.620076121738413 -0.502284707464983
0.62000869789432 -0.7478479142467133
0.6199565258316732 -0.9931019009415295
0.6199298334926048 -1.2379571935362688
0.6199196127269421 -1.4822814365399377
0.61991604644997 -1.7257703788297145
0.619914868215348 -1.9677628972683525
0.6199148231416212 -2.2070802814168995
0.6199149663035264 -2.441980421104516
0.6199138125633681 -2.670256530330407
0.6199056498267043 -2.889337303444441
0.6198875141558972 -3.0963776327053467
0.6198729716109668 -3.288254863064633
0.6199251444043548 -3.4615709712927263
0.6202022879058673 -3.6126804571147035
0.6210075007905864 -3.737799838323501
0.6227670728209088 -3.833239811723639
0.6259556401523918 -3.8956350169354788
0.6317723530399243 -3.922027064195654
0.6375890659274577 -3.895635016935342
0.6407776332589401 -3.833239811723364
0.6425372052892611 -3.737799838323105
0.6433424181739799 -3.612680457114214
0.643619561675493 -3.461570971292169
0.6436717344688817 -3.288254863064028
0.6436571919239525 -3.0963776327047112
0.6436390562531471 -2.8893373034437926
0.643630893516485 -2.6702565303297665
0.643629739776328 -2.4419804211039025
0.643629882938234 -2.2070802814163275
0.6436298378645077 -1.9677628972678305
0.6436286596298859 -1.7257703788292493
0.6436250933529141 -1.4822814365395331
0.6436148725872514 -1.2379571935359301
0.643588180248183 -0.9931019009412543
0.6435360081855362 -0.7478479142465031
0.6434685843414434 -0.5022847074648358
0.6434315547245488 -0.2565233828211985
0.6436542441702477 -0.010736694991913976
0.6811633929790858 -0.01094125004128008
0.68131352929845 -0.256556175086078
0.6812459767624464 -0.5022785490079109
0.6811199361823419 -0.7478304269355287
0.6809751095370512 -0.9930846631952699
0.6808114372483233 -1.2379424868601103
0.6805988644809642 -1.482265469241114
0.6802770142354866 -1.725745883331509
0.6797304902243043 -1.9677196265756913
0.6787848084952746 -2.2070012788784075
0.6772986731822499 -2.4418496070116746
0.6751711514813156 -2.670058414491922
0.6723397354613824 -2.8890591871445603
0.6687393406315881 -3.0960090029469276
0.6643146692959033 -3.2877926447809775
0.6590645771952429 -3.4610306805329762
0.6531009459344587 -3.6121091833029055
0.6467136415911262 -3.737287777695318
0.6403666112434553 -3.8328834329401382
0.6347299961005672 -3.8955590079782842
0.6317723530399084 -3.9229215596575346
0.6288147099792493 -3.895559007978147
0.6231780948363616 -3.832883432939863
0.616831064488694 -3.737287777694923
0.6104437601453672 -3.612109183302417
0.6044801288845891 -3.4610306805324202
0.5992300367839343 -3.2877926447803736
0.5948053654482552 -3.0960090029462926
0.591204970618467 -2.8890591871439133
0.5883735545985403 -2.6700584144912822
0.5862460328976117 -2.441849607011062
0.5847598975845916 -2.207001278877836
0.5838142158555645 -1.9677196265751693
0.5832676918443839 -1.7257458833310437
0.5829458415989073 -1.4822654692407096
0.5827332688315484 -1.237942486859772
0.5825695965428208 -0.9930846631949948
0.5824247698975303 -0.7478304269353185
0.5822987293174258 -0.5022785490077638
0.5822311767814222 -0.25655617508599493
0.5823813131007862 -0.010941250041263064
0.7424056407198886 -0.011097541386772188
0.742506755840252 -0.25658735230085505
0.7424119440186581 -0.5022677539250273
0.7422302979426755 -0.7478054746651263
0.7419962085034195 -0.993054742265736
0.7416991722175562 -1.2379084540891396
0.741288689248303 -1.482220153160844
0.7406301100746161 -1.7256663911450885
0.7394574697055265 -1.9675561352719135
0.7374646235546485 -2.206688791292451
0.734394444634313 -2.441336651378948
0.7300701104970283 -2.6693119498601625
0.7243610729116536 -2.8880542205691992
0.7171397160018341 -3.0947194348175184
0.708280483247452 -3.2861989791856385
0.6977078007934471 -3.4591342215705003
0.6854811262199071 -3.6099509492010613
0.6718652004935801 -3.7349601347783987
0.6573975564534082 -3.830535730816768
0.6432376889283796 -3.8935393232207653
0.631772353039893 -3.9219765250658947
0.6203070171514063 -3.8935393232206277
0.6061471496263802 -3.830535730816494