# vtk DataFile Version 3.0
Some data
ASCII
DATASET UNSTRUCTURED_GRID
POINTS 861 float
0.0 0.0 0.0
0.4 0.0 0.0
0.8 0.0 0.0
1.2000000000000002 0.0 0.0
1.6 0.0 0.0
2.0 0.0 0.0
2.4000000000000004 0.0 0.0
2.8000000000000003 0.0 0.0
3.2 0.0 0.0
3.6 0.0 0.0
4.0 0.0 0.0
4.4 0.0 0.0
4.800000000000001 0.0 0.0
5.2 0.0 0.0
5.6000000000000005 0.0 0.0
6.0 0.0 0.0
6.4 0.0 0.0
6.800000000000001 0.0 0.0
7.2 0.0 0.0
7.6000000000000005 0.0 0.0
8.0 0.0 0.0
8.4 0.0 0.0
8.8 0.0 0.0
9.200000000000001 0.0 0.0
9.600000000000001 0.0 0.0
10.0 0.0 0.0
10.4 0.0 0.0
10.8 0.0 0.0
11.200000000000001 0.0 0.0
11.600000000000001 0.0 0.0
12.0 0.0 0.0
12.4 0.0 0.0
12.8 0.0 0.0
13.200000000000001 0.0 0.0
13.600000000000001 0.0 0.0
14.0 0.0 0.0
14.4 0.0 0.0
14.8 0.0 0.0
15.200000000000001 0.0 0.0
15.600000000000001 0.0 0.0
16.0 0.0 0.0
0.0 0.1 0.0
0.4 0.1 0.0
0.8 0.1 0.0
1.2000000000000002 0.1 0.0
1.6 0.1 0.0
2.0 0.1 0.0
2.4000000000000004 0.1 0.0
2.8000000000000003 0.1 0.0
3.2 0.1 0.0
3.6 0.1 0.0
4.0 0.1 0.0
4.4 0.1 0.0
4.800000000000001 0.1 0.0
5.2 0.1 0.0
5.6000000000000005 0.1 0.0
6.0 0.1 0.0
6.4 0.1 0.0
6.800000000000001 0.1 0.0
7.2 0.1 0.0
7.6000000000000005 0.1 0.0
8.0 0.1 0.0
8.4 0.1 0.0
8.8 0.1 0.0
9.200000000000001 0.1 0.0
9.600000000000001 0.1 0.0
10.0 0.1 0.0
10.4 0.1 0.0
10.8 0.1 0.0
11.200000000000001 0.1 0.0
11.600000000000001 0.1 0.0
12.0 0.1 0.0
12.4 0.1 0.0
12.8 0.1 0.0
13.200000000000001 0.1 0.0
13.600000000000001 0.1 0.0
14.0 0.1 0.0
14.4 0.1 0.0
14.8 0.1 0.0
15.200000000000001 0.1 0.0
15.600000000000001 0.1 0.0
16.0 0.1 0.0
0.0 0.2 0.0
0.4 0.2 0.0
0.8 0.2 0.0
1.2000000000000002 0.2 0.0
1.6 0.2 0.0
2.0 0.2 0.0
2.4000000000000004 0.2 0.0
2.8000000000000003 0.2 0.0
3.2 0.2 0.0
3.6 0.2 0.0
4.0 0.2 0.0
4.4 0.2 0.0
4.800000000000001 0.2 0.0
5.2 0.2 0.0
5.6000000000000005 0.2 0.0
6.0 0.2 0.0
6.4 0.2 0.0
6.800000000000001 0.2 0.0
7.2 0.2 0.0
7.6000000000000005 0.2 0.0
8.0 0.2 0.0
8.4 0.2 0.0
8.8 0.2 0.0
9.200000000000001 0.2 0.0
9.600000000000001 0.2 0.0
10.0 0.2 0.0
10.4 0.2 0.0
10.8 0.2 0.0
11.200000000000001 0.2 0.0
11.600000000000001 0.2 0.0
12.0 0.2 0.0
12.4 0.2 0.0
12.8 0.2 0.0
13.200000000000001 0.2 0.0
13.600000000000001 0.2 0.0
14.0 0.2 0.0
14.4 0.2 0.0
14.8 0.2 0.0
15.200000000000001 0.2 0.0
15.600000000000001 0.2 0.0
16.0 0.2 0.0
0.0 0.30000000000000004 0.0
0.4 0.30000000000000004 0.0
0.8 0.30000000000000004 0.0
1.2000000000000002 0.30000000000000004 0.0
1.6 0.30000000000000004 0.0
2.0 0.30000000000000004 0.0
2.4000000000000004 0.30000000000000004 0.0
2.8000000000000003 0.30000000000000004 0.0
3.2 0.30000000000000004 0.0
3.6 0.30000000000000004 0.0
4.0 0.30000000000000004 0.0
4.4 0.30000000000000004 0.0
4.800000000000001 0.30000000000000004 0.0
5.2 0.30000000000000004 0.0
5.6000000000000005 0.30000000000000004 0.0
6.0 0.30000000000000004 0.0
6.4 0.30000000000000004 0.0
6.800000000000001 0.30000000000000004 0.0
7.2 0.30000000000000004 0.0
7.6000000000000005 0.30000000000000004 0.0
8.0 0.30000000000000004 0.0
8.4 0.30000000000000004 0.0
8.8 0.30000000000000004 0.0
9.200000000000001 0.30000000000000004 0.0
9.600000000000001 0.30000000000000004 0.0
10.0 0.30000000000000004 0.0
10.4 0.30000000000000004 0.0
10.8 0.30000000000000004 0.0
11.200000000000001 0.30000000000000004 0.0
11.600000000000001 0.30000000000000004 0.0
12.0 0.30000000000000004 0.0
12.4 0.30000000000000004 0.0
12.8 0.30000000000000004 0.0
13.200000000000001 0.30000000000000004 0.0
13.600000000000001 0.30000000000000004 0.0
14.0 0.30000000000000004 0.0
14.4 0.30000000000000004 0.0
14.8 0.30000000000000004 0.0
15.200000000000001 0.30000000000000004 0.0
15.600000000000001 0.30000000000000004 0.0
16.0 0.30000000000000004 0.0
0.0 0.4 0.0
0.4 0.4 0.0
0.8 0.4 0.0
1.2000000000000002 0.4 0.0
1.6 0.4 0.0
2.0 0.4 0.0
2.4000000000000004 0.4 0.0
2.8000000000000003 0.4 0.0
3.2 0.4 0.0
3.6 0.4 0.0
4.0 0.4 0.0
4.4 0.4 0.0
4.800000000000001 0.4 0.0
5.2 0.4 0.0
5.6000000000000005 0.4 0.0
6.0 0.4 0.0
6.4 0.4 0.0
6.800000000000001 0.4 0.0
7.2 0.4 0.0
7.6000000000000005 0.4 0.0
8.0 0.4 0.0
8.4 0.4 0.0
8.8 0.4 0.0
9.200000000000001 0.4 0.0
9.600000000000001 0.4 0.0
10.0 0.4 0.0
10.4 0.4 0.0
10.8 0.4 0.0
11.200000000000001 0.4 0.0
11.600000000000001 0.4 0.0
12.0 0.4 0.0
12.4 0.4 0.0
12.8 0.4 0.0
13.200000000000001 0.4 0.0
13.600000000000001 0.4 0.0
14.0 0.4 0.0
14.4 0.4 0.0
14.8 0.4 0.0
15.200000000000001 0.4 0.0
15.600000000000001 0.4 0.0
16.0 0.4 0.0
0.0 0.5 0.0
0.4 0.5 0.0
0.8 0.5 0.0
1.2000000000000002 0.5 0.0
1.6 0.5 0.0
2.0 0.5 0.0
2.4000000000000004 0.5 0.0
2.8000000000000003 0.5 0.0
3.2 0.5 0.0
3.6 0.5 0.0
4.0 0.5 0.0
4.4 0.5 0.0
4.800000000000001 0.5 0.0
5.2 0.5 0.0
5.6000000000000005 0.5 0.0
6.0 0.5 0.0
6.4 0.5 0.0
6.800000000000001 0.5 0.0
7.2 0.5 0.0
7.6000000000000005 0.5 0.0
8.0 0.5 0.0
8.4 0.5 0.0
8.8 0.5 0.0
9.200000000000001 0.5 0.0
9.600000000000001 0.5 0.0
10.0 0.5 0.0
10.4 0.5 0.0
10.8 0.5 0.0
11.200000000000001 0.5 0.0
11.600000000000001 0.5 0.0
12.0 0.5 0.0
12.4 0.5 0.0
12.8 0.5 0.0
13.200000000000001 0.5 0.0
13.600000000000001 0.5 0.0
14.0 0.5 0.0
14.4 0.5 0.0
14.8 0.5 0.0
15.200000000000001 0.5 0.0
15.600000000000001 0.5 0.0
16.0 0.5 0.0
0.0 0.6000000000000001 0.0
0.4 0.6000000000000001 0.0
0.8 0.6000000000000001 0.0
1.2000000000000002 0.6000000000000001 0.0
1.6 0.6000000000000001 0.0
2.0 0.6000000000000001 0.0
2.4000000000000004 0.6000000000000001 0.0
2.8000000000000003 0.6000000000000001 0.0
3.2 0.6000000000000001 0.0
3.6 0.6000000000000001 0.0
4.0 0.6000000000000001 0.0
4.4 0.6000000000000001 0.0
4.800000000000001 0.6000000000000001 0.0
5.2 0.6000000000000001 0.0
5.6000000000000005 0.6000000000000001 0.0
6.0 0.6000000000000001 0.0
6.4 0.6000000000000001 0.0
6.800000000000001 0.6000000000000001 0.0
7.2 0.6000000000000001 0.0
7.6000000000000005 0.6000000000000001 0.0
8.0 0.6000000000000001 0.0
8.4 0.6000000000000001 0.0
8.8 0.6000000000000001 0.0
9.200000000000001 0.6000000000000001 0.0
9.600000000000001 0.6000000000000001 0.0
10.0 0.6000000000000001 0.0
10.4 0.6000000000000001 0.0
10.8 0.6000000000000001 0.0
11.200000000000001 0.6000000000000001 0.0
11.600000000000001 0.6000000000000001 0.0
12.0 0.6000000000000001 0.0
12.4 0.6000000000000001 0.0
12.8 0.6000000000000001 0.0
13.200000000000001 0.6000000000000001 0.0
13.600000000000001 0.6000000000000001 0.0
14.0 0.6000000000000001 0.0
14.4 0.6000000000000001 0.0
14.8 0.6000000000000001 0.0
15.200000000000001 0.6000000000000001 0.0
15.600000000000001 0.6000000000000001 0.0
16.0 0.6000000000000001 0.0
0.0 0.7000000000000001 0.0
0.4 0.7000000000000001 0.0
0.8 0.7000000000000001 0.0
1.2000000000000002 0.7000000000000001 0.0
1.6 0.7000000000000001 0.0
2.0 0.7000000000000001 0.0
2.4000000000000004 0.7000000000000001 0.0
2.8000000000000003 0.7000000000000001 0.0
3.2 0.7000000000000001 0.0
3.6 0.7000000000000001 0.0
4.0 0.7000000000000001 0.0
4.4 0.7000000000000001 0.0
4.800000000000001 0.7000000000000001 0.0
5.2 0.7000000000000001 0.0
5.6000000000000005 0.7000000000000001 0.0
6.0 0.7000000000000001 0.0
6.4 0.7000000000000001 0.0
6.800000000000001 0.7000000000000001 0.0
7.2 0.7000000000000001 0.0
7.6000000000000005 0.7000000000000001 0.0
8.0 0.7000000000000001 0.0
8.4 0.7000000000000001 0.0
8.8 0.7000000000000001 0.0
9.200000000000001 0.7000000000000001 0.0
9.600000000000001 0.7000000000000001 0.0
10.0 0.7000000000000001 0.0
10.4 0.7000000000000001 0.0
10.8 0.7000000000000001 0.0
11.200000000000001 0.7000000000000001 0.0
11.600000000000001 0.7000000000000001 0.0
12.0 0.7000000000000001 0.0
12.4 0.7000000000000001 0.0
12.8 0.7000000000000001 0.0
13.200000000000001 0.7000000000000001 0.0
13.600000000000001 0.7000000000000001 0.0
14.0 0.7000000000000001 0.0
14.4 0.7000000000000001 0.0
14.8 0.7000000000000001 0.0
15.200000000000001 0.7000000000000001 0.0
15.600000000000001 0.7000000000000001 0.0
16.0 0.7000000000000001 0.0
0.0 0.8 0.0
0.4 0.8 0.0
0.8 0.8 0.0
1.2000000000000002 0.8 0.0
1.6 0.8 0.0
2.0 0.8 0.0
2.4000000000000004 0.8 0.0
2.8000000000000003 0.8 0.0
3.2 0.8 0.0
3.6 0.8 0.0
4.0 0.8 0.0
4.4 0.8 0.0
4.800000000000001 0.8 0.0
5.2 0.8 0.0
5.6000000000000005 0.8 0.0
6.0 0.8 0.0
6.4 0.8 0.0
6.800000000000001 0.8 0.0
7.2 0.8 0.0
7.6000000000000005 0.8 0.0
8.0 0.8 0.0
8.4 0.8 0.0
8.8 0.8 0.0
9.200000000000001 0.8 0.0
9.600000000000001 0.8 0.0
10.0 0.8 0.0
10.4 0.8 0.0
10.8 0.8 0.0
11.200000000000001 0.8 0.0
11.600000000000001 0.8 0.0
12.0 0.8 0.0
12.4 0.8 0.0
12.8 0.8 0.0
13.200000000000001 0.8 0.0
13.600000000000001 0.8 0.0
14.0 0.8 0.0
14.4 0.8 0.0
14.8 0.8 0.0
15.200000000000001 0.8 0.0
15.600000000000001 0.8 0.0
16.0 0.8 0.0
0.0 0.9 0.0
0.4 0.9 0.0
0.8 0.9 0.0
1.2000000000000002 0.9 0.0
1.6 0.9 0.0
2.0 0.9 0.0
2.4000000000000004 0.9 0.0
2.8000000000000003 0.9 0.0
3.2 0.9 0.0
3.6 0.9 0.0
4.0 0.9 0.0
4.4 0.9 0.0
4.800000000000001 0.9 0.0
5.2 0.9 0.0
5.6000000000000005 0.9 0.0
6.0 0.9 0.0
6.4 0.9 0.0
6.800000000000001 0.9 0.0
7.2 0.9 0.0
7.6000000000000005 0.9 0.0
8.0 0.9 0.0
8.4 0.9 0.0
8.8 0.9 0.0
9.200000000000001 0.9 0.0
9.600000000000001 0.9 0.0
10.0 0.9 0.0
10.4 0.9 0.0
10.8 0.9 0.0
11.200000000000001 0.9 0.0
11.600000000000001 0.9 0.0
12.0 0.9 0.0
12.4 0.9 0.0
12.8 0.9 0.0
13.200000000000001 0.9 0.0
13.600000000000001 0.9 0.0
14.0 0.9 0.0
14.4 0.9 0.0
14.8 0.9 0.0
15.200000000000001 0.9 0.0
15.600000000000001 0.9 0.0
16.0 0.9 0.0
0.0 1.0 0.0
0.4 1.0 0.0
0.8 1.0 0.0
1.2000000000000002 1.0 0.0
1.6 1.0 0.0
2.0 1.0 0.0
2.4000000000000004 1.0 0.0
2.8000000000000003 1.0 0.0
3.2 1.0 0.0
3.6 1.0 0.0
4.0 1.0 0.0
4.4 1.0 0.0
4.800000000000001 1.0 0.0
5.2 1.0 0.0
5.6000000000000005 1.0 0.0
6.0 1.0 0.0
6.4 1.0 0.0
6.800000000000001 1.0 0.0
7.2 1.0 0.0
7.6000000000000005 1.0 0.0
8.0 1.0 0.0
8.4 1.0 0.0
8.8 1.0 0.0
9.200000000000001 1.0 0.0
9.600000000000001 1.0 0.0
10.0 1.0 0.0
10.4 1.0 0.0
10.8 1.0 0.0
11.200000000000001 1.0 0.0
11.600000000000001 1.0 0.0
12.0 1.0 0.0
12.4 1.0 0.0
12.8 1.0 0.0
13.200000000000001 1.0 0.0
13.600000000000001 1.0 0.0
14.0 1.0 0.0
14.4 1.0 0.0
14.8 1.0 0.0
15.200000000000001 1.0 0.0
15.600000000000001 1.0 0.0
16.0 1.0 0.0
0.0 1.1 0.0
0.4 1.1 0.0
0.8 1.1 0.0
1.2000000000000002 1.1 0.0
1.6 1.1 0.0
[...]
POINT_DATA 861
SCALARS Disp float 2
LOOKUP_TABLE default
0.0 0.0
0.01645194701872998 -0.3006716373071847
0.0293036003671632 -0.5547282656851981
0.039612361080353625 -0.8044239946028731
0.05138971166597692 -1.0493172859692041
0.0655540624396598 -1.28929924355295
0.08255705960003323 -1.5232230851427118
0.10257996604286344 -1.7498497994482682
0.1256821183581554 -1.9678990473733646
0.15187726904367754 -2.176106231398513
0.18116336149510184 -2.37322139834261
0.21353565445161707 -2.5580060573703327
0.24899123004018084 -2.729229333954392
0.2875333182491203 -2.885666254334859
0.32918058323966876 -3.0260936777612297
0.3739841356687576 -3.149273476481348
0.4220446533250813 -3.253904534268632
0.4734954528663164 -3.338526092402278
0.5283779421536344 -3.401392923094694
0.5863349877964454 -3.4404594684782546
0.6462208704220345 -3.453777122599347
0.7061067530476234 -3.4404594684782537
0.7640637986904346 -3.4013929230946935
0.8189462879777522 -3.3385260924022764
0.8703970875189873 -3.253904534268632
0.9184576051753109 -3.1492734764813477
0.9632611576043998 -3.026093677761229
1.0049084225949483 -2.8856662543348586
1.0434505108038878 -2.7292293339543923
1.0789060863924518 -2.558006057370332
1.111278379348967 -2.3732213983426096
1.1405644718003907 -2.1761062313985127
1.1667596224859131 -1.9678990473733644
1.189861774801205 -1.749849799448268
1.2098846812440356 -1.52322308514271
1.2268876784044087 -1.2892992435529504
1.2410520291780915 -1.0493172859692037
1.2528293797637147 -0.8044239946028736
1.2631381404769053 -0.5547282656851974
1.2759897938253386 -0.30067163730718377
1.2924417408440683 0.0
0.07448042565403028 -0.01021697760561622
0.0847250892971015 -0.2998751885579652
0.09181592013202686 -0.5561709348758219
0.10136796546850857 -0.8054298209453992
0.11184234394647848 -1.0506424861772898
0.12463073787537862 -1.290877737303998
0.13995457550957888 -1.5251072577854679
0.15798944613635435 -1.7520443476250278
0.17878783734104353 -1.9704081520577508
0.20236588440011585 -2.178929989094121
0.22872416124842482 -2.376359494199271
0.2578599287823665 -2.56145809029802
0.28977169285495885 -2.732995262959441
0.3244632854837596 -2.8897469612563507
0.3619513343309102 -3.03049220903739
0.40227739708039134 -3.1539968582794984
0.4455168015458202 -3.2589644184677176
0.491754717396413 -3.3439330257461806
0.5409721618847443 -3.4071357626069583
0.59279675427414 -3.4464672656985664
0.6462208704220344 -3.4598899866615156
0.6996449865699289 -3.446467265698566
0.7514695789593246 -3.4071357626069574
0.8006870234476556 -3.343933025746179
0.8469249392982484 -3.258964418467717
0.8901643437636771 -3.1539968582794984
0.9304904065131584 -3.030492209037389
0.967978455360309 -2.8897469612563498
1.00267004798911 -2.7329952629594416
1.0345818120617023 -2.5614580902980197
1.0637175795956437 -2.376359494199271
1.0900758564439526 -2.178929989094121
1.113653903503025 -1.9704081520577508
1.1344522947077142 -1.7520443476250274
1.1524871653344897 -1.525107257785466
1.1678110029686897 -1.2908777373039986
1.1805993968975899 -1.0506424861772894
1.1910737753755598 -0.8054298209453998
1.2006258207120417 -0.5561709348758214
1.207716651546967 -0.2998751885579642
1.2179613151900381 -0.010216977605616245
0.14388949189497516 -0.018993082479737317
0.151237545428707 -0.2992910750358789
0.1550537919100065 -0.55696582525586
0.16270178843044983 -0.8064090224387134
0.1719897600726015 -1.0517897791346966
0.18330713334866394 -1.292295391828213
0.19694022131362227 -1.5267919235005318
0.21297812613880332 -1.7540088834427103
0.231471366389272 -1.9726534961420936
0.2524324202360644 -2.1814567683423935
0.2758634134922454 -2.379167407960998
0.3017629727733012 -2.5645468979195942
0.330130531965507 -2.736364940857743
0.3609694438862604 -2.8933981338632
0.3942923005351675 -3.0344270186395668
0.4301290297278015 -3.158220324027141
0.4685315939340234 -3.26348508130987
0.5095525173902763 -3.3487588824330703
0.5531521982656379 -3.4122582440535014
0.5989969534721973 -3.451828427479083
0.6462208704220344 -3.4653493828021498
0.6934447873718717 -3.4518284274790823
0.7392895425784309 -3.412258244053501
0.7828892234537923 -3.348758882433069
0.8239101469100453 -3.2634850813098697
0.8623127111162672 -3.1582203240271407
0.8981494403089011 -3.0344270186395654
0.9314722969578083 -2.8933981338631996
0.9623112088785617 -2.736364940857743
0.9906787680707673 -2.5645468979195933
1.0165783273518232 -2.379167407960998
1.040009320608004 -2.181456768342393
1.0609703744547967 -1.9726534961420936
1.0794636147052652 -1.7540088834427094
1.0955015195304463 -1.5267919235005303
1.1091346074954043 -1.2922953918282134
1.1204519807714668 -1.051789779134696
1.1297399524136187 -0.806409022438714
1.137387948934062 -0.5569658252558595
1.1412041954153613 -0.299291075035878
1.1485522489490934 -0.018993082479737345
0.21030207781001756 -0.026493956695855445
0.21613890414230938 -0.29911932842452305
0.2181624641819664 -0.557317830122745
0.22385487925718864 -0.8072180743247157
0.23179682544182212 -1.0527881491390363
0.241642523618865 -1.2935355615547877
0.2535575703294704 -1.5282778597313211
0.26759445264925785 -1.7557420213813848
0.28378001639322536 -1.9746351517472158
0.30212402615357975 -2.1836865930835296
0.3226279652302003 -2.381645221956652
0.3452914508685617 -2.5672724802416242
0.3701143318999277 -2.7393381786022784
0.3970986631629465 -2.896619139622701
0.42625167807624503 -3.0378966624304464
0.4575907352009569 -3.161941495096893
0.49114733059012416 -3.267464479903763
0.5269553680688294 -3.3530066142951944
0.5649866535717275 -3.416777249182599
0.6049845589584375 -3.4565809442917375
0.6462208704220344 -3.470205188175596
0.6874571818856314 -3.4565809442917366
0.7274550872723414 -3.4167772491825987
0.7654863727752392 -3.353006614295193
0.8012944102539445 -3.2674644799037624
0.8348510056431118 -3.161941495096893
0.8661900627678235 -3.0378966624304455
0.8953430776811222 -2.896619139622701
0.922327408944141 -2.739338178602278
0.9471502899755068 -2.567272480241624
0.9698137756138682 -2.381645221956652
0.9903177146904888 -2.183686593083529
1.0086617244508431 -1.974635151747216
1.0248472881948105 -1.7557420213813841
1.0388841705145981 -1.5282778597313196
1.0507992172252032 -1.293535561554788
1.0606449154022461 -1.052788149139036
1.0685868615868799 -0.8072180743247165
1.074279276662102 -0.5573178301227445
1.076302836701759 -0.29911932842452216
1.0821396630340507 -0.02649395669585549
0.2747999963660468 -0.03288264764706816
0.2797264053754479 -0.2993388361608934
0.280795335678806 -0.5574165506133664
0.2848070765225474 -0.8078159613136654
0.2913122879833013 -1.0536288278284143
0.29966952203660463 -1.294597421709127
0.30985560891905684 -1.5295619838716792
0.3218849370044881 -1.7572435993466928
0.3357613112460958 -1.9763528450666934
0.35148774621481715 -2.18561951268025
0.3690646944120977 -2.3837929606552324
0.38849207507729716 -2.5696348200652253
0.4097698056166554 -2.741914808927513
0.4328980843823957 -2.8994094991790216
0.45787809655754197 -3.0409001403415123
0.48471453602722697 -3.1651588904964165
0.5134214811629676 -3.2709018102379392
0.5440256762765511 -3.3566798594582887
0.5765349220283947 -3.420707754013798
0.6107980469504555 -3.4607565043592636
0.6462208704220342 -3.4744989718877948
0.6816436938936133 -3.460756504359263
0.715906818815674 -3.420707754013797
0.7484160645675176 -3.3566798594582887
0.7790202596811013 -3.270901810237939
0.8077272048168415 -3.165158890496416
0.8345636442865266 -3.0409001403415123
0.859543656461673 -2.899409499179021
0.8826719352274132 -2.7419148089275125
0.9039496657667713 -2.5696348200652244
0.9233770464319707 -2.383792960655232
0.9409539946292514 -2.1856195126802493
0.9566804295979726 -1.976352845066693
0.9705568038395803 -1.7572435993466922
0.9825861319250118 -1.5295619838716779
0.9927722188074638 -1.2945974217091272
1.001129452860767 -1.053628827828414
1.007634664321521 -0.8078159613136662
1.0116464051652625 -0.5574165506133657
1.0127153354686205 -0.2993388361608925
1.0176417444780215 -0.03288264764706819
0.338004699801288 -0.03830908195132605
0.3422857271879285 -0.2998595340102376
0.34285040317017385 -0.5573930785271174
0.3455031633023403 -0.8082129825680833
0.35057528505546515 -1.0543016862448529
0.3574269682985308 -1.2954805712105333
0.36587948073587184 -1.5306428706911426
0.3758967878646423 -1.758513093638613
0.3874623423789464 -1.9778064604037668
0.4005706685908373 -2.1872554876882604
0.41522046640347504 -2.385610630745658
0.4314116056495207 -2.5716338842592164
0.44914376432929964 -2.744094707543376
0.4684150294124118 -2.9017689133679827
0.48922041270555056 -3.043436906086283
0.511552465261897 -3.1678718260726906
0.5354104936929278 -3.273797106954975
0.5608222570924234 -3.3597820919985324
0.5878492666873223 -3.4240620026455395
0.6164686571184416 -3.464381355621322
0.6462208704220344 -3.4782664829394783
0.6759730837256271 -3.464381355621321
0.7045924741567465 -3.4240620026455386
0.7316194837516452 -3.359782091998532
0.757031247151141 -3.2737971069549747
0.7808892755821714 -3.16787182607269
0.8032213281385181 -3.0434369060862827
0.8240267114316567 -2.901768913367982
0.8432979765147689 -2.744094707543376
0.8610301351945477 -2.5716338842592155
0.8772212744405934 -2.385610630745658
0.8918710722532313 -2.18725548768826
0.9049793984651221 -1.9778064604037662
0.9165449529794261 -1.7585130936386129
0.9265622601081968 -1.530642870691141
0.9350147725455377 -1.2954805712105335
0.9418664557886033 -1.0543016862448527
0.946938577541728 -0.808212982568084
0.9495913376738946 -0.5573930785271168
0.9501560136561399 -0.29985953401023674
0.9544370410427805 -0.038309081951326096
0.40030371862142966 -0.04290362351505952
0.40405594929710503 -0.3005814489456073
0.4043414935845899 -0.5573254954429819
0.4059112070541413 -0.8084384934651663
0.409613005309861 -1.0548042853578656
0.41495630370782227 -1.2961842879942116
0.42167356274831497 -1.5315201944243217
0.4296768412706666 -1.7595500961443715
0.4389301720687406 -1.9789958830117322
0.4494198048034096 -2.1885944656680842
0.46114216025975785 -2.3870982079686183
0.4740968325496671 -2.573269637360289
0.4882830880306093 -2.7458778024038746
0.5036969092284234 -2.9036972728437744
0.5203275190486938 -3.045506853237634
0.5381563151873094 -3.170080315990931
0.5571697500444426 -3.2761509322051343
0.5774010418210883 -3.3623160024151555
0.5989767323071257 -3.426848969740328
0.6220225096669342 -3.4674769203194558
0.6462208704220344 -3.481539517930851
0.6704192311771345 -3.4674769203194553
0.6934650085369432 -3.4268489697403277
0.7150406990229803 -3.362316002415155
0.7352719907996261 -3.276150932205134
0.754285425656759 -3.1700803159909303
0.7721142217953748 -3.045506853237633
0.7887448316156452 -2.903697272843774
0.8041586528134592 -2.745877802403874
0.8183449082944014 -2.5732696373602884
0.8312995805843105 -2.3870982079686187
0.843021936040659 -2.188594465668084
0.8535115687753279 -1.9789958830117316
0.8627648995734019 -1.759550096144371
0.8707681780957536 -1.5315201944243202
0.8774854371362462 -1.296184287994212
0.8828287355342075 -1.0548042853578654
0.8865305337899271 -0.8084384934651669
0.8881002472594786 -0.5573254954429814
0.8883857915469634 -0.30058144894560634
0.8921380222226387 -0.04290362351505958
0.46195615110346877 -0.0467758730762859
0.46523017788712817 -0.30141599311389716
0.46533452685685456 -0.557253696811498
0.46603046057821407 -0.8085244425155157
0.4684499589581506 -1.0551413494917679
0.47229872400792816 -1.296708801315913
0.4772825390219242 -1.5321941673742745
0.48327159676854586 -1.7603544722884965
0.49021180394744046 -1.9799210036070525
0.4980821213966547 -2.189636384581505
0.5068766496616689 -2.388255648260746
0.5165945691570633 -2.574542044907133
0.527234692458182 -2.7472640775669177
0.5387911390174018 -2.905194650363602
0.5512481697487869 -3.047110282686716
0.564577427277485 -3.171784988249452
0.5787536132392144 -3.2779641705477007
0.5938158989748762 -3.3642830948338416
0.6099608611186028 -3.429073950692291
0.6274820925997515 -3.470060143860553
0.6462208704220344 -3.4843474853492484
0.6649596482443171 -3.4700601438605525
0.6824808797254658 -3.42907395069229
0.6986258418691924 -3.3642830948338407
0.7136881276048541 -3.2779641705477
0.7278643135665837 -3.1717849882494513
0.7411935710952816 -3.047110282686715
0.7536506018266667 -2.905194650363601
0.7652070483858865 -2.7472640775669177
0.7758471716870052 -2.5745420449071323
0.7855650911823994 -2.3882556482607464
0.7943596194474137 -2.1896363845815046
0.8022299368966279 -1.9799210036070518
0.8091701440755227 -1.7603544722884963
0.8151592018221443 -1.532194167374273
0.8201430168361404 -1.2967088013159132
0.8239917818859178 -1.0551413494917674
0.8264112802658543 -0.8085244425155164
0.827107213987214 -0.5572536968114973
0.8272115629569402 -0.3014159931138963
0.8304855897405997 -0.04677587307628595
0.523146153099656 -0.05001662924861441
0.5259643859194074 -0.3022918406478335
0.5259161087854187 -0.5571928277391852
0.5258856774910893 -0.8084983143939931
0.5271142619510442 -1.0553219364547002
0.5294951054660665 -1.297055911681196
0.5327514281825182 -1.532665408772651
0.5367274636957119 -1.7609263229910894
0.5413541547379724 -1.9805817513349955
0.5466045520896305 -2.1903811719459334
0.5524707971602697 -2.389082895124057
0.5589516410335121 -2.5754510763075102
0.5660455007095454 -2.748253569406352
0.5737450641258828 -2.906261278647864
0.582030826624339 -3.048247853294275
0.5908665024215347 -3.172987018663392
0.6002155083977176 -3.2792379412536894
0.6101195004677189 -3.3656834858441096
0.6208432946780638 -3.4307381919738114
0.6328674055277541 -3.4721435554976505
0.6462208704220342 -3.486718875196005
0.6595743353163144 -3.47214355549765
0.6715984461660048 -3.4307381919738105
0.6823222403763497 -3.3656834858441087
0.6922262324463508 -3.2792379412536885
0.7015752384225339 -3.172987018663392
0.7104109142197295 -3.0482478532942743
0.7186966767181857 -2.906261278647863
0.7263962401345231 -2.748253569406351
0.7334900998105562 -2.57545107630751
0.7399709436837986 -2.389082895124057
0.7458371887544379 -2.190381171945933
0.751087586106096 -1.9805817513349948
0.7557142771483566 -1.7609263229910888
0.7596903126615503 -1.5326654087726492
0.762946635378002 -1.2970559116811966
0.7653274788930243 -1.0553219364546995
0.7665560633529792 -0.8084983143939939
0.7665256320586497 -0.5571928277391847
0.7664773549246611 -0.30229184064783265
0.7692955877444125 -0.05001662924861448
0.5840119805379675 -0.05270119902142675
0.5863864557936657 -0.30315474260713043
0.5861783540893929 -0.5571432192837179
0.5855194004554896 -0.8083809752723847
0.585640205629383 -1.0553568122948935
0.5865869419811262 -1.2972288807955488
0.5881255372162804 -1.5329349490019
0.5900909020380164 -1.7612659196152882
0.5924040766615352 -1.9809781026609563
0.5950339949823529 -2.1908287497463212
0.5979714526439958 -2.3895798833338633
0.6012148756498186 -2.5759967061605544
0.6047624195596464 -2.7488463573344224
0.6086059025220483 -2.906897515964457
0.612723529648242 -3.0489205154336028
0.6170734117258373 -3.1736880795145934
0.6216079701463549 -3.279973631914161
0.6263641819827783 -3.366515908110048
0.631665379473415 -3.431838522313487
0.6381969563677448 -3.473734988442693
0.6462208704220341 -3.4886828033050814
0.6542447844763238 -3.4737349884426925
0.6607763613706537 -3.4318385223134866
0.6660775588612902 -3.366515908110048
0.6708337706977135 -3.2799736319141606
0.6753683291182313 -3.173688079514593
0.6797182111958265 -3.0489205154336028
0.6838358383220201 -2.906897515964456
0.6876793212844221 -2.748846357334422
0.6912268651942498 -2.575996706160554
0.6944702882000724 -2.389579883333864
0.6974077458617155 -2.1908287497463212
0.7000376641825332 -1.9809781026609556
0.7023508388060521 -1.7612659196152876
0.7043162036277881 -1.5329349490018982
0.7058547988629422 -1.2972288807955494
0.7068015352146854 -1.055356812294893
0.7069223403885789 -0.8083809752723853
0.7062633867546755 -0.5571432192837174
0.7060552850504028 -0.3031547426071295
0.7084297603061009 -0.052701199021426816
0.6446625502165125 -0.05489299420021032
0.6466034545526311 -0.3039652508220546
0.6462118658188155 -0.5570971259740957
0.644985483330117 -0.8081868197168501
0.6440685596040598 -1.0552566444177123
0.6436172436246932 -1.2972319523294817
0.6434505482175572 -1.5330041926037756
0.6434084779407158 -1.7613736520327183
0.6434083888300945 -1.981110071494381
0.6434173111158962 -2.1909790391363493
0.6434254510991344 -2.389746541857049
0.6434310948965096 -2.576178913503712
0.643432321530326 -2.7490425509200023
0.64342070739509 -2.9071038028153082
0.6433738005147138 -3.049129425501455
0.6432469941700489 -3.1738902890663807
0.642982579759909 -3.2801730486923475
0.6426027404509582 -3.3667779480369884
0.6424699128408063 -3.4323669871182703
0.6434887888889785 -3.474836859654126
0.6462208704220341 -3.4902707958967847
0.6489529519550898 -3.474836859654126
0.6499718280032621 -3.43236698711827
0.6498390003931103 -3.3667779480369875
0.6494591610841595 -3.280173048692347
0.6491947466740197 -3.1738902890663807
0.6490679403293547 -3.049129425501455
0.6490210334489785 -2.907103802815307
0.6490094193137425 -2.749042550920002
0.6490106459475588 -2.576178913503711
0.6490162897449339 -2.3897465418570496
0.6490244297281722 -2.190979039136349
0.6490333520139738 -1.9811100714943808
0.6490332629033526 -1.7613736520327177
0.6489911926265114 -1.533004192603774
0.6488244972193752 -1.2972319523294824
0.6483731812400086 -1.0552566444177118
0.6474562575139514 -0.8081868197168508
0.6462298750252529 -0.5570971259740953
0.6458382862914374 -0.3039652508220538
0.647779190627556 -0.05489299420021037
0.7051871538500906 -0.056646903457116385
0.7067069704714245 -0.3046960046128972
0.7061027827034941 -0.5570430694722214
0.704344420370381 -0.8079248483343917
0.7024458319802964 -1.055030971204374
0.7006310682932397 -1.2970697849766504
0.6987726696751034 -1.532874801722602
0.696726886840737 -1.7612499815416185
0.694413896633886 -1.9809776923231408
0.6918013260183175 -2.1908319623375836
0.6888796105104176 -2.3895827966629843
0.6856471105809568 -2.5759976794935824
0.6821020331828869 -2.748842274927468
0.6782363508481734 -2.9068806145350967
0.6740285927699878 -3.048875840179499
0.6694348429120918 -3.1735961364539116
0.6643897039876732 -3.279838664104066
0.658889072347323 -3.3664665773688505
0.653303186426075 -3.432310541190527
0.648761759856546 -3.4754448410879557
0.6462208704220342 -3.4915189982402652
0.6436799809875223 -3.475444841087956
0.6391385544179935 -3.432310541190527
0.6335526684967454 -3.36646657736885
0.6280520368563954 -3.2798386641040667
0.6230068979319768 -3.173596136453912
0.6184131480740804 -3.0488758401794986
0.614205389995895 -2.9068806145350954
0.6103397076611815 -2.7488422749274672
0.6067946302631115 -2.5759976794935815
0.6035621303336508 -2.389582796662985
0.6006404148257509 -2.190831962337583
0.5980278442101824 -1.9809776923231404
0.5957148540033314 -1.7612499815416178
0.593669071168965 -1.5328748017226006
0.5918106725508288 -1.2970697849766508
0.5899959088637721 -1.0550309712043737
0.5880973204736875 -0.8079248483343924
0.5863389581405742 -0.557043069472221
0.5857347703726439 -0.30469600461289637
0.5872545869939779 -0.056646903457116475
0.7656611638791458 -0.05801224754689557
0.7667767994949203 -0.3053292226101053
0.765931819994227 -0.5569685478156714
0.763660274117994 -0.8076000034123179
0.7608232160549381 -1.0546877350032509
0.7576756886608649 -1.2967469411914845
0.7541387599279373 -1.532548522584103
0.7500929644338808 -1.760895388123953
0.745467397336344 -1.9805810023892358
0.7402328313225623 -2.1903874424937433
0.7343807308829386 -2.389088573447446
0.7279097234916948 -2.5754529842401728
0.7208183298131692 -2.748245653234899
0.7130995249827476 -2.906228415835926
0.7047343044554267 -3.0481609940954084
0.6956831127995311 -3.172808344804984
0.6858779407996085 -3.278973914564312
0.675278466865078 -3.3655790706899604
0.6642175053601274 -3.4316509402711017
0.6540374051101628 -3.4755456557045545
0.6462208704220342 -3.4924710222790463
0.6384043357339054 -3.475545655704555
0.6282242354839411 -3.4316509402711013
0.6171632739789904 -3.3655790706899604