# vtk DataFile Version 3.0
Some data
ASCII
DATASET UNSTRUCTURED_GRID
POINTS 861 float
0.0 0.0 0.0
0.4 0.0 0.0
0.8 0.0 0.0
1.2000000000000002 0.0 0.0
1.6 0.0 0.0
2.0 0.0 0.0
2.4000000000000004 0.0 0.0
2.8000000000000003 0.0 0.0
3.2 0.0 0.0
3.6 0.0 0.0
4.0 0.0 0.0
4.4 0.0 0.0
4.800000000000001 0.0 0.0
5.2 0.0 0.0
5.6000000000000005 0.0 0.0
6.0 0.0 0.0
6.4 0.0 0.0
6.800000000000001 0.0 0.0
7.2 0.0 0.0
7.6000000000000005 0.0 0.0
8.0 0.0 0.0
8.4 0.0 0.0
8.8 0.0 0.0
9.200000000000001 0.0 0.0
9.600000000000001 0.0 0.0
10.0 0.0 0.0
10.4 0.0 0.0
10.8 0.0 0.0
11.200000000000001 0.0 0.0
11.600000000000001 0.0 0.0
12.0 0.0 0.0
12.4 0.0 0.0
12.8 0.0 0.0
13.200000000000001 0.0 0.0
13.600000000000001 0.0 0.0
14.0 0.0 0.0
14.4 0.0 0.0
14.8 0.0 0.0
15.200000000000001 0.0 0.0
15.600000000000001 0.0 0.0
16.0 0.0 0.0
0.0 0.1 0.0
0.4 0.1 0.0
0.8 0.1 0.0
1.2000000000000002 0.1 0.0
1.6 0.1 0.0
2.0 0.1 0.0
2.4000000000000004 0.1 0.0
2.8000000000000003 0.1 0.0
3.2 0.1 0.0
3.6 0.1 0.0
4.0 0.1 0.0
4.4 0.1 0.0
4.800000000000001 0.1 0.0
5.2 0.1 0.0
5.6000000000000005 0.1 0.0
6.0 0.1 0.0
6.4 0.1 0.0
6.800000000000001 0.1 0.0
7.2 0.1 0.0
7.6000000000000005 0.1 0.0
8.0 0.1 0.0
8.4 0.1 0.0
8.8 0.1 0.0
9.200000000000001 0.1 0.0
9.600000000000001 0.1 0.0
10.0 0.1 0.0
10.4 0.1 0.0
10.8 0.1 0.0
11.200000000000001 0.1 0.0
11.600000000000001 0.1 0.0
12.0 0.1 0.0
12.4 0.1 0.0
12.8 0.1 0.0
13.200000000000001 0.1 0.0
13.600000000000001 0.1 0.0
14.0 0.1 0.0
14.4 0.1 0.0
14.8 0.1 0.0
15.200000000000001 0.1 0.0
15.600000000000001 0.1 0.0
16.0 0.1 0.0
0.0 0.2 0.0
0.4 0.2 0.0
0.8 0.2 0.0
1.2000000000000002 0.2 0.0
1.6 0.2 0.0
2.0 0.2 0.0
2.4000000000000004 0.2 0.0
2.8000000000000003 0.2 0.0
3.2 0.2 0.0
3.6 0.2 0.0
4.0 0.2 0.0
4.4 0.2 0.0
4.800000000000001 0.2 0.0
5.2 0.2 0.0
5.6000000000000005 0.2 0.0
6.0 0.2 0.0
6.4 0.2 0.0
6.800000000000001 0.2 0.0
7.2 0.2 0.0
7.6000000000000005 0.2 0.0
8.0 0.2 0.0
8.4 0.2 0.0
8.8 0.2 0.0
9.200000000000001 0.2 0.0
9.600000000000001 0.2 0.0
10.0 0.2 0.0
10.4 0.2 0.0
10.8 0.2 0.0
11.200000000000001 0.2 0.0
11.600000000000001 0.2 0.0
12.0 0.2 0.0
12.4 0.2 0.0
12.8 0.2 0.0
13.200000000000001 0.2 0.0
13.600000000000001 0.2 0.0
14.0 0.2 0.0
14.4 0.2 0.0
14.8 0.2 0.0
15.200000000000001 0.2 0.0
15.600000000000001 0.2 0.0
16.0 0.2 0.0
0.0 0.30000000000000004 0.0
0.4 0.30000000000000004 0.0
0.8 0.30000000000000004 0.0
1.2000000000000002 0.30000000000000004 0.0
1.6 0.30000000000000004 0.0
2.0 0.30000000000000004 0.0
2.4000000000000004 0.30000000000000004 0.0
2.8000000000000003 0.30000000000000004 0.0
3.2 0.30000000000000004 0.0
3.6 0.30000000000000004 0.0
4.0 0.30000000000000004 0.0
4.4 0.30000000000000004 0.0
4.800000000000001 0.30000000000000004 0.0
5.2 0.30000000000000004 0.0
5.6000000000000005 0.30000000000000004 0.0
6.0 0.30000000000000004 0.0
6.4 0.30000000000000004 0.0
6.800000000000001 0.30000000000000004 0.0
7.2 0.30000000000000004 0.0
7.6000000000000005 0.30000000000000004 0.0
8.0 0.30000000000000004 0.0
8.4 0.30000000000000004 0.0
8.8 0.30000000000000004 0.0
9.200000000000001 0.30000000000000004 0.0
9.600000000000001 0.30000000000000004 0.0
10.0 0.30000000000000004 0.0
10.4 0.30000000000000004 0.0
10.8 0.30000000000000004 0.0
11.200000000000001 0.30000000000000004 0.0
11.600000000000001 0.30000000000000004 0.0
12.0 0.30000000000000004 0.0
12.4 0.30000000000000004 0.0
12.8 0.30000000000000004 0.0
13.200000000000001 0.30000000000000004 0.0
13.600000000000001 0.30000000000000004 0.0
14.0 0.30000000000000004 0.0
14.4 0.30000000000000004 0.0
14.8 0.30000000000000004 0.0
15.200000000000001 0.30000000000000004 0.0
15.600000000000001 0.30000000000000004 0.0
16.0 0.30000000000000004 0.0
0.0 0.4 0.0
0.4 0.4 0.0
0.8 0.4 0.0
1.2000000000000002 0.4 0.0
1.6 0.4 0.0
2.0 0.4 0.0
2.4000000000000004 0.4 0.0
2.8000000000000003 0.4 0.0
3.2 0.4 0.0
3.6 0.4 0.0
4.0 0.4 0.0
4.4 0.4 0.0
4.800000000000001 0.4 0.0
5.2 0.4 0.0
5.6000000000000005 0.4 0.0
6.0 0.4 0.0
6.4 0.4 0.0
6.800000000000001 0.4 0.0
7.2 0.4 0.0
7.6000000000000005 0.4 0.0
8.0 0.4 0.0
8.4 0.4 0.0
8.8 0.4 0.0
9.200000000000001 0.4 0.0
9.600000000000001 0.4 0.0
10.0 0.4 0.0
10.4 0.4 0.0
10.8 0.4 0.0
11.200000000000001 0.4 0.0
11.600000000000001 0.4 0.0
12.0 0.4 0.0
12.4 0.4 0.0
12.8 0.4 0.0
13.200000000000001 0.4 0.0
13.600000000000001 0.4 0.0
14.0 0.4 0.0
14.4 0.4 0.0
14.8 0.4 0.0
15.200000000000001 0.4 0.0
15.600000000000001 0.4 0.0
16.0 0.4 0.0
0.0 0.5 0.0
0.4 0.5 0.0
0.8 0.5 0.0
1.2000000000000002 0.5 0.0
1.6 0.5 0.0
2.0 0.5 0.0
2.4000000000000004 0.5 0.0
2.8000000000000003 0.5 0.0
3.2 0.5 0.0
3.6 0.5 0.0
4.0 0.5 0.0
4.4 0.5 0.0
4.800000000000001 0.5 0.0
5.2 0.5 0.0
5.6000000000000005 0.5 0.0
6.0 0.5 0.0
6.4 0.5 0.0
6.800000000000001 0.5 0.0
7.2 0.5 0.0
7.6000000000000005 0.5 0.0
8.0 0.5 0.0
8.4 0.5 0.0
8.8 0.5 0.0
9.200000000000001 0.5 0.0
9.600000000000001 0.5 0.0
10.0 0.5 0.0
10.4 0.5 0.0
10.8 0.5 0.0
11.200000000000001 0.5 0.0
11.600000000000001 0.5 0.0
12.0 0.5 0.0
12.4 0.5 0.0
12.8 0.5 0.0
13.200000000000001 0.5 0.0
13.600000000000001 0.5 0.0
14.0 0.5 0.0
14.4 0.5 0.0
14.8 0.5 0.0
15.200000000000001 0.5 0.0
15.600000000000001 0.5 0.0
16.0 0.5 0.0
0.0 0.6000000000000001 0.0
0.4 0.6000000000000001 0.0
0.8 0.6000000000000001 0.0
1.2000000000000002 0.6000000000000001 0.0
1.6 0.6000000000000001 0.0
2.0 0.6000000000000001 0.0
2.4000000000000004 0.6000000000000001 0.0
2.8000000000000003 0.6000000000000001 0.0
3.2 0.6000000000000001 0.0
3.6 0.6000000000000001 0.0
4.0 0.6000000000000001 0.0
4.4 0.6000000000000001 0.0
4.800000000000001 0.6000000000000001 0.0
5.2 0.6000000000000001 0.0
5.6000000000000005 0.6000000000000001 0.0
6.0 0.6000000000000001 0.0
6.4 0.6000000000000001 0.0
6.800000000000001 0.6000000000000001 0.0
7.2 0.6000000000000001 0.0
7.6000000000000005 0.6000000000000001 0.0
8.0 0.6000000000000001 0.0
8.4 0.6000000000000001 0.0
8.8 0.6000000000000001 0.0
9.200000000000001 0.6000000000000001 0.0
9.600000000000001 0.6000000000000001 0.0
10.0 0.6000000000000001 0.0
10.4 0.6000000000000001 0.0
10.8 0.6000000000000001 0.0
11.200000000000001 0.6000000000000001 0.0
11.600000000000001 0.6000000000000001 0.0
12.0 0.6000000000000001 0.0
12.4 0.6000000000000001 0.0
12.8 0.6000000000000001 0.0
13.200000000000001 0.6000000000000001 0.0
13.600000000000001 0.6000000000000001 0.0
14.0 0.6000000000000001 0.0
14.4 0.6000000000000001 0.0
14.8 0.6000000000000001 0.0
15.200000000000001 0.6000000000000001 0.0
15.600000000000001 0.6000000000000001 0.0
16.0 0.6000000000000001 0.0
0.0 0.7000000000000001 0.0
0.4 0.7000000000000001 0.0
0.8 0.7000000000000001 0.0
1.2000000000000002 0.7000000000000001 0.0
1.6 0.7000000000000001 0.0
2.0 0.7000000000000001 0.0
2.4000000000000004 0.7000000000000001 0.0
2.8000000000000003 0.7000000000000001 0.0
3.2 0.7000000000000001 0.0
3.6 0.7000000000000001 0.0
4.0 0.7000000000000001 0.0
4.4 0.7000000000000001 0.0
4.800000000000001 0.7000000000000001 0.0
5.2 0.7000000000000001 0.0
5.6000000000000005 0.7000000000000001 0.0
6.0 0.7000000000000001 0.0
6.4 0.7000000000000001 0.0
6.800000000000001 0.7000000000000001 0.0
7.2 0.7000000000000001 0.0
7.6000000000000005 0.7000000000000001 0.0
8.0 0.7000000000000001 0.0
8.4 0.7000000000000001 0.0
8.8 0.7000000000000001 0.0
9.200000000000001 0.7000000000000001 0.0
9.600000000000001 0.7000000000000001 0.0
10.0 0.7000000000000001 0.0
10.4 0.7000000000000001 0.0
10.8 0.7000000000000001 0.0
11.200000000000001 0.7000000000000001 0.0
11.600000000000001 0.7000000000000001 0.0
12.0 0.7000000000000001 0.0
12.4 0.7000000000000001 0.0
12.8 0.7000000000000001 0.0
13.200000000000001 0.7000000000000001 0.0
13.600000000000001 0.7000000000000001 0.0
14.0 0.7000000000000001 0.0
14.4 0.7000000000000001 0.0
14.8 0.7000000000000001 0.0
15.200000000000001 0.7000000000000001 0.0
15.600000000000001 0.7000000000000001 0.0
16.0 0.7000000000000001 0.0
0.0 0.8 0.0
0.4 0.8 0.0
0.8 0.8 0.0
1.2000000000000002 0.8 0.0
1.6 0.8 0.0
2.0 0.8 0.0
2.4000000000000004 0.8 0.0
2.8000000000000003 0.8 0.0
3.2 0.8 0.0
3.6 0.8 0.0
4.0 0.8 0.0
4.4 0.8 0.0
4.800000000000001 0.8 0.0
5.2 0.8 0.0
5.6000000000000005 0.8 0.0
6.0 0.8 0.0
6.4 0.8 0.0
6.800000000000001 0.8 0.0
7.2 0.8 0.0
7.6000000000000005 0.8 0.0
8.0 0.8 0.0
8.4 0.8 0.0
8.8 0.8 0.0
9.200000000000001 0.8 0.0
9.600000000000001 0.8 0.0
10.0 0.8 0.0
10.4 0.8 0.0
10.8 0.8 0.0
11.200000000000001 0.8 0.0
11.600000000000001 0.8 0.0
12.0 0.8 0.0
12.4 0.8 0.0
12.8 0.8 0.0
13.200000000000001 0.8 0.0
13.600000000000001 0.8 0.0
14.0 0.8 0.0
14.4 0.8 0.0
14.8 0.8 0.0
15.200000000000001 0.8 0.0
15.600000000000001 0.8 0.0
16.0 0.8 0.0
0.0 0.9 0.0
0.4 0.9 0.0
0.8 0.9 0.0
1.2000000000000002 0.9 0.0
1.6 0.9 0.0
2.0 0.9 0.0
2.4000000000000004 0.9 0.0
2.8000000000000003 0.9 0.0
3.2 0.9 0.0
3.6 0.9 0.0
4.0 0.9 0.0
4.4 0.9 0.0
4.800000000000001 0.9 0.0
5.2 0.9 0.0
5.6000000000000005 0.9 0.0
6.0 0.9 0.0
6.4 0.9 0.0
6.800000000000001 0.9 0.0
7.2 0.9 0.0
7.6000000000000005 0.9 0.0
8.0 0.9 0.0
8.4 0.9 0.0
8.8 0.9 0.0
9.200000000000001 0.9 0.0
9.600000000000001 0.9 0.0
10.0 0.9 0.0
10.4 0.9 0.0
10.8 0.9 0.0
11.200000000000001 0.9 0.0
11.600000000000001 0.9 0.0
12.0 0.9 0.0
12.4 0.9 0.0
12.8 0.9 0.0
13.200000000000001 0.9 0.0
13.600000000000001 0.9 0.0
14.0 0.9 0.0
14.4 0.9 0.0
14.8 0.9 0.0
15.200000000000001 0.9 0.0
15.600000000000001 0.9 0.0
16.0 0.9 0.0
0.0 1.0 0.0
0.4 1.0 0.0
0.8 1.0 0.0
1.2000000000000002 1.0 0.0
1.6 1.0 0.0
2.0 1.0 0.0
2.4000000000000004 1.0 0.0
2.8000000000000003 1.0 0.0
3.2 1.0 0.0
3.6 1.0 0.0
4.0 1.0 0.0
4.4 1.0 0.0
4.800000000000001 1.0 0.0
5.2 1.0 0.0
5.6000000000000005 1.0 0.0
6.0 1.0 0.0
6.4 1.0 0.0
6.800000000000001 1.0 0.0
7.2 1.0 0.0
7.6000000000000005 1.0 0.0
8.0 1.0 0.0
8.4 1.0 0.0
8.8 1.0 0.0
9.200000000000001 1.0 0.0
9.600000000000001 1.0 0.0
10.0 1.0 0.0
10.4 1.0 0.0
10.8 1.0 0.0
11.200000000000001 1.0 0.0
11.600000000000001 1.0 0.0
12.0 1.0 0.0
12.4 1.0 0.0
12.8 1.0 0.0
13.200000000000001 1.0 0.0
13.600000000000001 1.0 0.0
14.0 1.0 0.0
14.4 1.0 0.0
14.8 1.0 0.0
15.200000000000001 1.0 0.0
15.600000000000001 1.0 0.0
16.0 1.0 0.0
0.0 1.1 0.0
0.4 1.1 0.0
0.8 1.1 0.0
1.2000000000000002 1.1 0.0
1.6 1.1 0.0
[...]
POINT_DATA 861
SCALARS Disp float 2
LOOKUP_TABLE default
0.0 0.0
0.0053035374087951 -0.2034454804228171
0.006510570561624676 -0.39838835798362016
0.007271016114172933 -0.5924136173259839
0.008222841314179214 -0.7861079628258721
0.00968126643516406 -0.9791331595798969
0.012142475577646528 -1.1710474676457345
0.016190322487665103 -1.361301635285133
0.02250495115086354 -1.5492137912095922
0.0318251123393628 -1.7339053424852162
0.04489594368982243 -1.9141968660613058
0.06244396348560917 -2.08853421364219
0.08516752936258966 -2.2549933858588096
0.11372896155451549 -2.411363707708988
0.1487550425283487 -2.555216427837186
0.19077126450118365 -2.6839558715360585
0.24007733680461113 -2.7948790479045034
0.2965910585306444 -2.885274914376894
0.3597079227649918 -2.9526059265941282
0.42823340805658267 -2.9947475286226295
0.5002429236177336 -3.0102372892788143
0.5722524391788814 -2.994747528622537
0.6407779244704583 -2.952605926593941
0.7038947887047818 -2.885274914376623
0.7604085104307853 -2.794879047904164
0.8097145827341805 -2.683955871535671
0.8517308047069824 -2.55521642783676
0.8867568856807823 -2.411363707708537
0.9153183178726737 -2.2549933858583477
0.9380418837496228 -2.088534213641732
0.9555899035453821 -1.9141968660608628
0.9686607348958183 -1.7339053424847988
0.9779808960842988 -1.5492137912092059
0.9842955247474836 -1.3613016352847842
0.9883433716574929 -1.171047467645426
0.9908045807999695 -0.9791331595796354
0.9922630059209515 -0.7861079628256575
0.9932148311209572 -0.592413617325819
0.9939752766735052 -0.39838835798350375
0.9951823098263335 -0.20344548042275182
1.0004858472351252 0.0
0.05075095395924412 -0.002238628759830363
0.05441615267676775 -0.2036627180968409
0.055056745928803885 -0.3984494619896369
0.0557344199930899 -0.5924992691232305
0.05657587422224846 -0.7862350644799525
0.057824460103622334 -0.9793990709372388
0.05994796940925406 -1.171584739606622
0.06349885942272332 -1.3622665218800085
0.06911658277976288 -1.550780202951307
0.07747582845736982 -1.7362497415259983
0.08924102504689158 -1.9174907913858714
0.10504542435336546 -2.092942991121969
0.12550102794750131 -2.26067741838661
0.1512118222422294 -2.4184781857842927
0.18275224923627678 -2.5639046549586744
0.22061346026913847 -2.694325946264619
0.26508776024303005 -2.80696861474312
0.31612867692832175 -2.899014238657229
0.3732226295457509 -2.967788371996398
0.4352574463209508 -3.0110084672596806
0.5002429236177224 -3.026938724347224
0.5652284009144904 -3.0110084672595865
0.6272632176896775 -2.967788371996206
0.6843571703070859 -2.8990142386569513
0.7353980869923515 -2.806968614742773
0.7798723869662145 -2.694325946264224
0.8177335979990462 -2.563904654958241
0.8492740249930636 -2.418478185783834
0.8749848192877612 -2.2606774183861402
0.8954404228818686 -2.092942991121504
0.9112448221883175 -1.9174907913854227
0.9230100187778183 -1.7362497415255764
0.9313692644554081 -1.5507802029509168
0.9369869878124353 -1.3622665218796572
0.9405378778258959 -1.1715847396063122
0.9426613871315227 -0.9793990709369765
0.9439099730128945 -0.7862350644797377
0.9447514272420525 -0.5924992691230655
0.9454291013063384 -0.3984494619895204
0.9460696945583745 -0.2036627180967753
0.9497348932758929 -0.0022386287598279
0.10058531890368505 -0.004004856739021804
0.10325337485391879 -0.2037687754870464
0.1036231605879117 -0.398484333973474
0.10417700229409736 -0.592575121759063
0.10491639700936192 -0.7863383715175575
0.10597670236868534 -0.9796097339301559
0.10776871682372127 -1.1720286270192064
0.11082458902962743 -1.3630915701156825
0.11573389896493043 -1.5521483879325342
0.12311020187344919 -1.7383206963015037
0.13354068985280165 -1.920415365669977
0.1475741867616128 -2.096864273503076
0.16573906725903875 -2.265736712541092
0.18856694272302285 -2.424817028262124
0.21658414131417808 -2.571655029644822
0.2502452447163527 -2.7035902325606402
0.289842484972205 -2.817788840564345
0.33538189075944885 -2.911337774016002
0.3864410378469305 -2.9814346364447095
0.4419818424204942 -3.025616070895525
0.5002429236177116 -3.0419483961763794
0.5585040048149252 -3.025616070895429
0.6140448093884775 -2.9814346364445137
0.6651039564759407 -2.911337774015719
0.710643362263162 -2.8177888405639915
0.7502406025189888 -2.7035902325602383
0.7839017059211366 -2.571655029644382
0.8119189045122651 -2.424817028261659
0.8347467799762226 -2.2657367125406154
0.8529116604736233 -2.0968642735026037
0.8669451573824116 -1.9204153656695229
0.8773756453617457 -1.738320696301077
0.8847519482702492 -1.5521483879321412
0.8896612582055409 -1.3630915701153288
0.8927171304114395 -1.172028627018895
0.8945091448664715 -0.979609733929893
0.8955694502257933 -0.7863383715173424
0.8963088449410574 -0.5925751217588981
0.8968626866472431 -0.3984843339733577
0.897232472381236 -0.2037687754869804
0.8999005283314646 -0.004004856739016745
0.14993897372755613 -0.00541990405909597
0.15194184728855098 -0.20384064046298456
0.15216821401840738 -0.39850388831683947
0.15260188735833563 -0.5926373589982756
0.15323900703728055 -0.7864247882892182
0.15413436446503995 -0.979772155759614
0.15561373193361222 -1.1723821544872297
0.1581791115841596 -1.3637780510626127
0.16237602256351308 -1.553316176428492
0.16875612517762426 -1.740113986596178
0.17783358097200347 -1.922965499888357
0.1900765566184866 -2.1002940556045986
0.20593422023877983 -2.270167673339919
0.22586429775717903 -2.430374324585859
0.25033081477818064 -2.578459723947005
0.2797586923726542 -2.7117397408200548
0.31444345041335664 -2.8273313732382412
0.3544439090863536 -2.922240078170849
0.39943455982426496 -2.9935399855343343
0.4485349780768998 -3.038603593357245
0.5002429236177011 -3.0553409849813438
0.5519508691584986 -3.038603593357147
0.6010512874111231 -2.993539985534135
0.6460419381490184 -2.922240078170561
0.6860423968219956 -2.8273313732378824
0.7207271548626757 -2.7117397408196466
0.7501550324571258 -2.578459723946559
0.7746215494781039 -2.430374324585388
0.79455162699648 -2.270167673339437
0.810409290616751 -2.100294055604121
0.8226522662632144 -1.922965499887898
0.8317297220575772 -1.7401139865957478
0.8381098246716749 -1.553316176428096
0.8423067356510184 -1.363778051062257
0.8448721153015596 -1.1723821544869173
0.8463514827701286 -0.9797721557593506
0.8472468401978869 -0.7864247882890032
0.8478839598768314 -0.5926373589981107
0.8483176332167598 -0.39850388831672323
0.8485439999466162 -0.20384064046291828
0.8505468735076065 -0.005419904059088548
0.19901680440243696 -0.006559785804741271
0.20052665745064802 -0.2038976052215301
0.20067459750447741 -0.3985151314379965
0.201006236839 -0.5926857777458883
0.20154071057996717 -0.7864970705081241
0.2022890953614365 -0.9798970560656287
0.20348900045987567 -1.1726522698762134
0.20557360996825996 -1.3643284520383643
0.20906229091746448 -1.5542840931478863
0.21444189949231562 -1.7416279058028836
0.22215721617538328 -1.9251390086098141
0.2326006773271869 -2.1032300941583255
0.24614189317041701 -2.273968619754043
0.2631649694726037 -2.435148300194533
0.28407482561085806 -2.5843146985749614
0.3092517984328715 -2.7187684447757854
0.33899322886215283 -2.8355885022115155
0.3734127636412961 -2.931711659559173
0.4123033807341051 -3.004104051041469
0.45498906854172066 -3.0499954729995715
0.5002429236176907 -3.06715848456551
0.5454967786936574 -3.0499954729994716
0.5881824665012634 -3.0041040510412667
0.6270730835940583 -2.9317116595588812
0.6614926183731846 -2.835588502211152
0.6912340488024468 -2.718768444775372
0.71641102162444 -2.5843146985745107
0.737320877762674 -2.435148300194056
0.7543439540648411 -2.273968619753556
0.7678851699080522 -2.1032300941578437
0.778328631059839 -1.9251390086093512
0.7860439477428923 -1.7416279058024502
0.791423556317732 -1.5542840931474877
0.794912237266928 -1.364328452038007
0.7969968467753071 -1.1726522698759
0.7981967518737438 -0.9798970560653653
0.7989451366552124 -0.7864970705079091
0.7994796103961793 -0.5926857777457231
0.799811249730702 -0.3985151314378803
0.7999591897845314 -0.20389760522146352
0.8014690428327386 -0.0065597858047317555
0.24791193881534915 -0.00747249886216161
0.2490386056876852 -0.20394610309320704
0.24914054724588786 -0.39852285629253753
0.24938740929886313 -0.5927215017621429
0.24981919430604643 -0.7865569484051709
0.25043484791382187 -0.979993112355838
0.25138640897281667 -1.1728511169931204
0.25302598923072006 -1.3647475940599563
0.2558123564407479 -1.5550547962693906
0.26019623856719026 -1.7428635980058225
0.2665498205368507 -1.926936011332387
0.2751928889819235 -2.1056728871419454
0.28641948828545444 -2.2771403126206025
0.3005390421725187 -2.439139623568117
0.31789073857201544 -2.589220637535883
0.33881787780196043 -2.7246745323641433
0.36360253399503845 -2.842553506866619
0.39240036263624883 -2.939742714739588
0.4251463113711125 -3.013123018257187
0.46140447735229806 -3.059803156508624
0.5002429236176803 -3.077425513000879
0.5390813698830594 -3.0598031565085226
0.5753395358642364 -3.013123018256982
0.6080854845990883 -2.939742714739292
0.6368833132402841 -2.8425535068662517
0.6616679694333459 -2.7246745323637254
0.682595108663274 -2.589220637535427
0.6999468050627539 -2.4391396235676357
0.7140663589498017 -2.277140312620111
0.7252929582533171 -2.1056728871414596
0.7339360266983758 -1.9269360113319205
0.7402896086680242 -1.7428635980053861
0.744673490794457 -1.5550547962689898
0.747459858004478 -1.3647475940595974
0.7490994382623772 -1.1728511169928066
0.7500509993213704 -0.9799931123555743
0.7506666529291454 -0.7865569484049556
0.7510984379363285 -0.5927215017619778
0.7513452999893038 -0.3985228562924213
0.7514472415475064 -0.20394610309314026
0.7525739084198393 -0.007472498862150318
0.2966739767625386 -0.008194876669266243
0.2974991306532241 -0.2039883746735497
0.2975707012294738 -0.3985295057271132
0.2977450320656951 -0.5927459471569677
0.29807500485769806 -0.7866048380725356
0.29856565865006446 -0.9800668836586749
0.2992962741872523 -1.172992706190687
0.30053223025980225 -1.365048822917829
0.3026508340070033 -1.5556335398011971
0.30604895053271886 -1.743824820957405
0.3110509316005773 -1.9283596057154941
0.3179022563191792 -2.1076254434095194
0.32682440792930134 -2.2796864731851274
0.3380539926033269 -2.4423525417642193
0.3518647208623645 -2.5931808883942558
0.3685495058949262 -2.7294602919815065
0.3883761090422306 -2.848224034107337
0.4115294237706114 -2.9463238551815287
0.43807307564117703 -3.020586405201191
0.46784283717562114 -3.0680245589003756
0.5002429236176696 -3.086152039509392
0.5326430100597154 -3.068024558900273
0.5624127715941521 -3.020586405200983
0.5889564234647082 -2.9463238551812294
0.6121097381930773 -2.848224034106966
0.6319363413403684 -2.7294602919810846
0.6486211263729162 -2.593180888393796
0.6624318546319403 -2.442352541763735
0.6736614393059533 -2.2796864731846327
0.682583590916063 -2.10762544340903
0.6894349156346535 -1.9283596057150247
0.6944368967025023 -1.743824820956966
0.6978350132282103 -1.5556335398007948
0.6999536169754061 -1.3650488229174693
0.7011895730479529 -1.1729927061903729
0.7019201885851398 -0.980066883658411
0.702410842377506 -0.7866048380723202
0.7027408151695088 -0.5927459471568026
0.70291514600573 -0.39852950572699697
0.7029867165819796 -0.20398837467348277
0.7038118704726628 -0.008194876669253509
0.34533646873714574 -0.008756323072987224
0.3459242613691024 -0.20402623232504555
0.3459718094021445 -0.39853560730317256
0.34608065594522514 -0.5927604849814261
0.3463106735174138 -0.7866400752911097
0.3466762639625462 -0.9801230800434622
0.34721355567063256 -1.1730889111679597
0.34808588383902334 -1.36524973530304
0.3495866088707617 -1.556034006733892
0.35203477941865163 -1.744518952194731
0.35570259552276673 -1.9294158306693507
0.3607785944577074 -2.1090937761104627
0.3674167673320111 -2.2816140541724477
0.37578152906950696 -2.444794923701592
0.38607725638969687 -2.596203420356682
0.39854464247396393 -2.733131546046233
0.4134268673803891 -2.852602060661041
0.43092210878287907 -2.951448595751807
0.4512014930072691 -3.026477376427038
0.4743745849140675 -3.074642627950693
0.5002429236176587 -3.0933328802310394
0.5261112623212478 -3.074642627950589
0.5492843542280406 -3.0264773764268282
0.5695637384524229 -2.951448595751506
0.5870589798549039 -2.8526020606606677
0.6019412047613184 -2.7331315460458083
0.6144085908455748 -2.59620342035622
0.624704318165755 -2.4447949237011044
0.6330690799032417 -2.2816140541719503
0.6397072527775364 -2.109093776109971
0.6447832517124683 -1.929415830668879
0.6484510678165765 -1.74451895219429
0.650899238364461 -1.5560340067334886
0.6523999633961957 -1.3652497353026793
0.6532722915645843 -1.1730889111676452
0.6538095832726701 -0.9801230800431983
0.6541751737178024 -0.7866400752908943
0.654405191289991 -0.5927604849812611
0.6545140378330715 -0.39853560730305626
0.6545615858661135 -0.20402623232497857
0.6551493784980684 -0.008756323072973355
0.393919262409954 -0.00918492668640154
0.3943290598516287 -0.20406120219636753
0.3943499863507889 -0.3985403959746208
0.39439719473248486 -0.5927661924437695
0.3945302550015857 -0.7866620826481553
0.39476644478237044 -0.9801630280471338
0.39512432514986 -1.1731520447467925
0.3956800006374641 -1.3653698918314146
0.3966193156474845 -1.5562778932722001
0.39817520144382723 -1.7449623370831273
0.40054936747756537 -1.9301157278842864
0.4038791854171568 -2.110088140457631
0.4082604964838607 -2.2829340820314714
0.4137945658453118 -2.446479233660734
0.42061532501164967 -2.59830078341266
0.4289006005095527 -2.735699118305865
0.438862525719628 -2.855695704574168
0.4507141623294539 -2.955115479606997
0.4646733210015301 -3.0307748292303605
0.4810870651126652 -3.0796238871459956
0.5002429236176471 -3.098946134620538
0.5193987821226282 -3.0796238871458903
0.5358125262337594 -3.0307748292301495
0.54977168490583 -2.955115479606694
0.5616233215156494 -2.8556957045737925
0.5715852467257174 -2.7356991183054378
0.5798705222236135 -2.5983007834121956
0.5866912813899453 -2.4464792336602446
0.5922253507513908 -2.2829340820309723
0.596606661818089 -2.110088140457137
0.5999364797576745 -1.9301157278838135
0.6023106457914081 -1.744962337082685
0.6038665315877476 -1.556277893271796
0.6048058465977657 -1.3653698918310535
0.6053615220853686 -1.1731520447464778
0.605719402452858 -0.9801630280468698
0.6059555922336427 -0.7866620826479399
0.6060886525027434 -0.5927661924436043
0.6061358608844393 -0.39854039597450447
0.6061567873835992 -0.20406120219630056
0.6065665848252729 -0.009184926686386808
0.4424357083265351 -0.009509540237130349
0.4427207003280816 -0.20409532662095933
0.44271092330377837 -0.39854225288600686
0.44269855720728374 -0.592763857456187
0.4427376261206489 -0.7866709269077877
0.4428423007441595 -0.980185448860694
0.4430185496629074 -1.1731893588170506
0.4432943061695161 -1.365431871031095
0.4437392827829873 -1.5563956534960437
0.44447841599815824 -1.7451842259846577
0.4456247161340264 -1.9304829394262297
0.4472585807093875 -2.1106281346136733
0.449421876408414 -2.2836651029015282
0.45216427576220614 -2.4474253970570876
0.4555562806990515 -2.5994936885024247
0.4597042472143091 -2.737181399613769
0.4647735000017009 -2.8575194149644556
0.47099322491039386 -2.957336192283219
0.47863883703961463 -3.0334644733248948
0.4881149199290564 -3.0829164824059316
0.5002429236176353 -3.102945774265251
0.5123709273062141 -3.0829164824058264
0.521847010195654 -3.0334644733246834
0.5294926223248714 -2.9573361922829147
0.5357123472335604 -2.8575194149640786
0.540781600020949 -2.7371813996133403
0.5449295665362034 -2.5994936885019593
0.5483215714730465 -2.4474253970565973
0.5510639708268363 -2.283665102901028
0.55322726652586 -2.110628134613178
0.5548611311012185 -1.930482939425756
0.5560074312370848 -1.745184225984215
0.5567465644522546 -1.5563956534956391
0.5571915410657249 -1.3654318710307336
0.557467297572333 -1.1731893588167357
0.5576435464910809 -0.9801854488604301
0.5577482211145914 -0.7866709269075723
0.5577872900279567 -0.5927638574560219
0.557774923931462 -0.39854225288589046
0.5577651469071586 -0.2040953266208924
0.5580501389087046 -0.009509540237115033
0.49090199429800463 -0.009754542752432888
0.49109917989356544 -0.20413058251944827
0.4910595023623803 -0.3985398127412224
0.4909892493704576 -0.5927539978836412
0.4909370811808766 -0.7866668447450674
0.4909108043402577 -0.9801896939854184
0.4909009522098971 -1.1732011273605458
0.49089817372919126 -1.3654517238063881
0.4908975739840761 -1.5564290748251066
0.4908977438856765 -1.7452415450704737
0.4908979875976397 -1.9305767523623245
0.4908977307061156 -2.1107674009957043
0.4908930291425455 -2.2838575766726383
0.4908805167390228 -2.4476816451480703
0.4908650810246676 -2.599828974581303
0.49088718202348125 -2.7376214370716334
0.49106532017551086 -2.858109699134525
0.49164862740159704 -2.9581459940241244
0.493012390142586 -3.0345788392350403
0.4955781256472338 -3.084478258348738
0.5002429236176232 -3.105259526619084
0.5049077215880132 -3.0844782583486325
0.5074734570926605 -3.0345788392348285
0.5088372198336484 -2.9581459940238197
0.5094205270597343 -2.8581096991341477
0.5095986652117647 -2.737621437071205
0.5096207662105791 -2.599828974580837
0.5096053304962248 -2.4476816451475796
0.5095928180927035 -2.283857576672138
0.5095881165291343 -2.1107674009952095
0.509587859637611 -1.93057675236185
0.509588103349575 -1.745241545070031
0.5095882732511758 -1.556429074824702
0.5095876735060609 -1.3654517238060266
0.5095848950253552 -1.1732011273602312
0.5095750428949947 -0.9801896939851544
0.5095487660543758 -0.786666844744852
0.509496597864795 -0.5927539978834762
0.5094263448728723 -0.39853981274110595
0.5093866673416871 -0.2041305825193814
0.5095838529372476 -0.00975454275241717
0.5393291659248222 -0.009942529601517274
0.5394662102198091 -0.20416569504597482
0.5393995921613528 -0.39853307733298454
0.539273978045121 -0.5927368079868689
0.5391333218431679 -0.7866502802232042
0.5389782658286482 -0.9801757298168337
0.5387832268739758 -1.1731867611958782
0.5385016990169317 -1.365431322893456
0.5380556600218205 -1.5563956442556568
0.5373170291662177 -1.7451842711760073
0.5361716590653112 -1.9304830760771323
0.534536502503445 -2.11062701310343
0.5323631827458865 -2.283661251840505
0.5295957185494414 -2.447418261776259
0.5261749500016674 -2.5994916962399235
0.5220744628826182 -2.7372173891146567
0.5173549823819688 -2.857672272635955
0.512233730248224 -2.9577478719806845
0.5071042005291245 -3.0343045544976808
0.5025511312727076 -3.0844230474542176
0.5002429236176111 -3.105997929497159
0.4979347159625142 -3.084423047454112
0.49338164670609735 -3.034304554497469
0.48825211698700033 -2.9577478719803802
0.4831308648532601 -2.8576722726355785
0.47841138435261577 -2.7372173891142286
0.4743108972335708 -2.5994916962394576
0.47089012868580105 -2.44741826177577
0.46812266448936085 -2.283661251840005
0.46594934473180705 -2.1106270131029357
0.4643141881699451 -1.9304830760766583
0.4631688180690422 -1.7451842711755647
0.4624301872134416 -1.556395644255252
0.4619841482183316 -1.3654313228930945
0.4617026203612882 -1.1731867611955633
0.4615075814066163 -0.9801757298165695
0.4613525253920967 -0.7866502802229888
0.4612118691901438 -0.5927368079867039
0.461086255073912 -0.398533077332868
0.4610196370154558 -0.20416569504590798
0.46115668131044246 -0.009942529601501346
0.5877315552444705 -0.010087102157683358
0.587826191382569 -0.2041986514681582
0.587735337941126 -0.39852242049051906
0.5875575766010234 -0.5927125573965887
0.5873319339065487 -0.7866218438955891
0.5870510989378899 -0.9801439097509165
0.5866758900709181 -1.1731468688094895
0.5861150144860623 -1.3653687456810897
0.5851751585496848 -1.556277907773869
0.5836205657110992 -1.7449626109054872
0.5812470321814236 -1.9301157696160445
0.5779151858393612 -2.1100856904040337
0.573524873726323 -2.2829260013514134
0.5679692610707365 -2.4464647519930085
0.5611243133529084 -2.5982970980373006
0.5528851325473414 -2.7357724827656638
0.5432474150447671 -2.856000707350607
0.5323899390580639 -2.955921323461592
0.520749557520373 -3.0324504323302275
0.509341702841538 -3.08285357215508
0.5002429236175993 -3.105326926749802