# vtk DataFile Version 3.0
Some data
ASCII
DATASET UNSTRUCTURED_GRID
POINTS 861 float
0.0 0.0 0.0
0.4 0.0 0.0
0.8 0.0 0.0
1.2000000000000002 0.0 0.0
1.6 0.0 0.0
2.0 0.0 0.0
2.4000000000000004 0.0 0.0
2.8000000000000003 0.0 0.0
3.2 0.0 0.0
3.6 0.0 0.0
4.0 0.0 0.0
4.4 0.0 0.0
4.800000000000001 0.0 0.0
5.2 0.0 0.0
5.6000000000000005 0.0 0.0
6.0 0.0 0.0
6.4 0.0 0.0
6.800000000000001 0.0 0.0
7.2 0.0 0.0
7.6000000000000005 0.0 0.0
8.0 0.0 0.0
8.4 0.0 0.0
8.8 0.0 0.0
9.200000000000001 0.0 0.0
9.600000000000001 0.0 0.0
10.0 0.0 0.0
10.4 0.0 0.0
10.8 0.0 0.0
11.200000000000001 0.0 0.0
11.600000000000001 0.0 0.0
12.0 0.0 0.0
12.4 0.0 0.0
12.8 0.0 0.0
13.200000000000001 0.0 0.0
13.600000000000001 0.0 0.0
14.0 0.0 0.0
14.4 0.0 0.0
14.8 0.0 0.0
15.200000000000001 0.0 0.0
15.600000000000001 0.0 0.0
16.0 0.0 0.0
0.0 0.1 0.0
0.4 0.1 0.0
0.8 0.1 0.0
1.2000000000000002 0.1 0.0
1.6 0.1 0.0
2.0 0.1 0.0
2.4000000000000004 0.1 0.0
2.8000000000000003 0.1 0.0
3.2 0.1 0.0
3.6 0.1 0.0
4.0 0.1 0.0
4.4 0.1 0.0
4.800000000000001 0.1 0.0
5.2 0.1 0.0
5.6000000000000005 0.1 0.0
6.0 0.1 0.0
6.4 0.1 0.0
6.800000000000001 0.1 0.0
7.2 0.1 0.0
7.6000000000000005 0.1 0.0
8.0 0.1 0.0
8.4 0.1 0.0
8.8 0.1 0.0
9.200000000000001 0.1 0.0
9.600000000000001 0.1 0.0
10.0 0.1 0.0
10.4 0.1 0.0
10.8 0.1 0.0
11.200000000000001 0.1 0.0
11.600000000000001 0.1 0.0
12.0 0.1 0.0
12.4 0.1 0.0
12.8 0.1 0.0
13.200000000000001 0.1 0.0
13.600000000000001 0.1 0.0
14.0 0.1 0.0
14.4 0.1 0.0
14.8 0.1 0.0
15.200000000000001 0.1 0.0
15.600000000000001 0.1 0.0
16.0 0.1 0.0
0.0 0.2 0.0
0.4 0.2 0.0
0.8 0.2 0.0
1.2000000000000002 0.2 0.0
1.6 0.2 0.0
2.0 0.2 0.0
2.4000000000000004 0.2 0.0
2.8000000000000003 0.2 0.0
3.2 0.2 0.0
3.6 0.2 0.0
4.0 0.2 0.0
4.4 0.2 0.0
4.800000000000001 0.2 0.0
5.2 0.2 0.0
5.6000000000000005 0.2 0.0
6.0 0.2 0.0
6.4 0.2 0.0
6.800000000000001 0.2 0.0
7.2 0.2 0.0
7.6000000000000005 0.2 0.0
8.0 0.2 0.0
8.4 0.2 0.0
8.8 0.2 0.0
9.200000000000001 0.2 0.0
9.600000000000001 0.2 0.0
10.0 0.2 0.0
10.4 0.2 0.0
10.8 0.2 0.0
11.200000000000001 0.2 0.0
11.600000000000001 0.2 0.0
12.0 0.2 0.0
12.4 0.2 0.0
12.8 0.2 0.0
13.200000000000001 0.2 0.0
13.600000000000001 0.2 0.0
14.0 0.2 0.0
14.4 0.2 0.0
14.8 0.2 0.0
15.200000000000001 0.2 0.0
15.600000000000001 0.2 0.0
16.0 0.2 0.0
0.0 0.30000000000000004 0.0
0.4 0.30000000000000004 0.0
0.8 0.30000000000000004 0.0
1.2000000000000002 0.30000000000000004 0.0
1.6 0.30000000000000004 0.0
2.0 0.30000000000000004 0.0
2.4000000000000004 0.30000000000000004 0.0
2.8000000000000003 0.30000000000000004 0.0
3.2 0.30000000000000004 0.0
3.6 0.30000000000000004 0.0
4.0 0.30000000000000004 0.0
4.4 0.30000000000000004 0.0
4.800000000000001 0.30000000000000004 0.0
5.2 0.30000000000000004 0.0
5.6000000000000005 0.30000000000000004 0.0
6.0 0.30000000000000004 0.0
6.4 0.30000000000000004 0.0
6.800000000000001 0.30000000000000004 0.0
7.2 0.30000000000000004 0.0
7.6000000000000005 0.30000000000000004 0.0
8.0 0.30000000000000004 0.0
8.4 0.30000000000000004 0.0
8.8 0.30000000000000004 0.0
9.200000000000001 0.30000000000000004 0.0
9.600000000000001 0.30000000000000004 0.0
10.0 0.30000000000000004 0.0
10.4 0.30000000000000004 0.0
10.8 0.30000000000000004 0.0
11.200000000000001 0.30000000000000004 0.0
11.600000000000001 0.30000000000000004 0.0
12.0 0.30000000000000004 0.0
12.4 0.30000000000000004 0.0
12.8 0.30000000000000004 0.0
13.200000000000001 0.30000000000000004 0.0
13.600000000000001 0.30000000000000004 0.0
14.0 0.30000000000000004 0.0
14.4 0.30000000000000004 0.0
14.8 0.30000000000000004 0.0
15.200000000000001 0.30000000000000004 0.0
15.600000000000001 0.30000000000000004 0.0
16.0 0.30000000000000004 0.0
0.0 0.4 0.0
0.4 0.4 0.0
0.8 0.4 0.0
1.2000000000000002 0.4 0.0
1.6 0.4 0.0
2.0 0.4 0.0
2.4000000000000004 0.4 0.0
2.8000000000000003 0.4 0.0
3.2 0.4 0.0
3.6 0.4 0.0
4.0 0.4 0.0
4.4 0.4 0.0
4.800000000000001 0.4 0.0
5.2 0.4 0.0
5.6000000000000005 0.4 0.0
6.0 0.4 0.0
6.4 0.4 0.0
6.800000000000001 0.4 0.0
7.2 0.4 0.0
7.6000000000000005 0.4 0.0
8.0 0.4 0.0
8.4 0.4 0.0
8.8 0.4 0.0
9.200000000000001 0.4 0.0
9.600000000000001 0.4 0.0
10.0 0.4 0.0
10.4 0.4 0.0
10.8 0.4 0.0
11.200000000000001 0.4 0.0
11.600000000000001 0.4 0.0
12.0 0.4 0.0
12.4 0.4 0.0
12.8 0.4 0.0
13.200000000000001 0.4 0.0
13.600000000000001 0.4 0.0
14.0 0.4 0.0
14.4 0.4 0.0
14.8 0.4 0.0
15.200000000000001 0.4 0.0
15.600000000000001 0.4 0.0
16.0 0.4 0.0
0.0 0.5 0.0
0.4 0.5 0.0
0.8 0.5 0.0
1.2000000000000002 0.5 0.0
1.6 0.5 0.0
2.0 0.5 0.0
2.4000000000000004 0.5 0.0
2.8000000000000003 0.5 0.0
3.2 0.5 0.0
3.6 0.5 0.0
4.0 0.5 0.0
4.4 0.5 0.0
4.800000000000001 0.5 0.0
5.2 0.5 0.0
5.6000000000000005 0.5 0.0
6.0 0.5 0.0
6.4 0.5 0.0
6.800000000000001 0.5 0.0
7.2 0.5 0.0
7.6000000000000005 0.5 0.0
8.0 0.5 0.0
8.4 0.5 0.0
8.8 0.5 0.0
9.200000000000001 0.5 0.0
9.600000000000001 0.5 0.0
10.0 0.5 0.0
10.4 0.5 0.0
10.8 0.5 0.0
11.200000000000001 0.5 0.0
11.600000000000001 0.5 0.0
12.0 0.5 0.0
12.4 0.5 0.0
12.8 0.5 0.0
13.200000000000001 0.5 0.0
13.600000000000001 0.5 0.0
14.0 0.5 0.0
14.4 0.5 0.0
14.8 0.5 0.0
15.200000000000001 0.5 0.0
15.600000000000001 0.5 0.0
16.0 0.5 0.0
0.0 0.6000000000000001 0.0
0.4 0.6000000000000001 0.0
0.8 0.6000000000000001 0.0
1.2000000000000002 0.6000000000000001 0.0
1.6 0.6000000000000001 0.0
2.0 0.6000000000000001 0.0
2.4000000000000004 0.6000000000000001 0.0
2.8000000000000003 0.6000000000000001 0.0
3.2 0.6000000000000001 0.0
3.6 0.6000000000000001 0.0
4.0 0.6000000000000001 0.0
4.4 0.6000000000000001 0.0
4.800000000000001 0.6000000000000001 0.0
5.2 0.6000000000000001 0.0
5.6000000000000005 0.6000000000000001 0.0
6.0 0.6000000000000001 0.0
6.4 0.6000000000000001 0.0
6.800000000000001 0.6000000000000001 0.0
7.2 0.6000000000000001 0.0
7.6000000000000005 0.6000000000000001 0.0
8.0 0.6000000000000001 0.0
8.4 0.6000000000000001 0.0
8.8 0.6000000000000001 0.0
9.200000000000001 0.6000000000000001 0.0
9.600000000000001 0.6000000000000001 0.0
10.0 0.6000000000000001 0.0
10.4 0.6000000000000001 0.0
10.8 0.6000000000000001 0.0
11.200000000000001 0.6000000000000001 0.0
11.600000000000001 0.6000000000000001 0.0
12.0 0.6000000000000001 0.0
12.4 0.6000000000000001 0.0
12.8 0.6000000000000001 0.0
13.200000000000001 0.6000000000000001 0.0
13.600000000000001 0.6000000000000001 0.0
14.0 0.6000000000000001 0.0
14.4 0.6000000000000001 0.0
14.8 0.6000000000000001 0.0
15.200000000000001 0.6000000000000001 0.0
15.600000000000001 0.6000000000000001 0.0
16.0 0.6000000000000001 0.0
0.0 0.7000000000000001 0.0
0.4 0.7000000000000001 0.0
0.8 0.7000000000000001 0.0
1.2000000000000002 0.7000000000000001 0.0
1.6 0.7000000000000001 0.0
2.0 0.7000000000000001 0.0
2.4000000000000004 0.7000000000000001 0.0
2.8000000000000003 0.7000000000000001 0.0
3.2 0.7000000000000001 0.0
3.6 0.7000000000000001 0.0
4.0 0.7000000000000001 0.0
4.4 0.7000000000000001 0.0
4.800000000000001 0.7000000000000001 0.0
5.2 0.7000000000000001 0.0
5.6000000000000005 0.7000000000000001 0.0
6.0 0.7000000000000001 0.0
6.4 0.7000000000000001 0.0
6.800000000000001 0.7000000000000001 0.0
7.2 0.7000000000000001 0.0
7.6000000000000005 0.7000000000000001 0.0
8.0 0.7000000000000001 0.0
8.4 0.7000000000000001 0.0
8.8 0.7000000000000001 0.0
9.200000000000001 0.7000000000000001 0.0
9.600000000000001 0.7000000000000001 0.0
10.0 0.7000000000000001 0.0
10.4 0.7000000000000001 0.0
10.8 0.7000000000000001 0.0
11.200000000000001 0.7000000000000001 0.0
11.600000000000001 0.7000000000000001 0.0
12.0 0.7000000000000001 0.0
12.4 0.7000000000000001 0.0
12.8 0.7000000000000001 0.0
13.200000000000001 0.7000000000000001 0.0
13.600000000000001 0.7000000000000001 0.0
14.0 0.7000000000000001 0.0
14.4 0.7000000000000001 0.0
14.8 0.7000000000000001 0.0
15.200000000000001 0.7000000000000001 0.0
15.600000000000001 0.7000000000000001 0.0
16.0 0.7000000000000001 0.0
0.0 0.8 0.0
0.4 0.8 0.0
0.8 0.8 0.0
1.2000000000000002 0.8 0.0
1.6 0.8 0.0
2.0 0.8 0.0
2.4000000000000004 0.8 0.0
2.8000000000000003 0.8 0.0
3.2 0.8 0.0
3.6 0.8 0.0
4.0 0.8 0.0
4.4 0.8 0.0
4.800000000000001 0.8 0.0
5.2 0.8 0.0
5.6000000000000005 0.8 0.0
6.0 0.8 0.0
6.4 0.8 0.0
6.800000000000001 0.8 0.0
7.2 0.8 0.0
7.6000000000000005 0.8 0.0
8.0 0.8 0.0
8.4 0.8 0.0
8.8 0.8 0.0
9.200000000000001 0.8 0.0
9.600000000000001 0.8 0.0
10.0 0.8 0.0
10.4 0.8 0.0
10.8 0.8 0.0
11.200000000000001 0.8 0.0
11.600000000000001 0.8 0.0
12.0 0.8 0.0
12.4 0.8 0.0
12.8 0.8 0.0
13.200000000000001 0.8 0.0
13.600000000000001 0.8 0.0
14.0 0.8 0.0
14.4 0.8 0.0
14.8 0.8 0.0
15.200000000000001 0.8 0.0
15.600000000000001 0.8 0.0
16.0 0.8 0.0
0.0 0.9 0.0
0.4 0.9 0.0
0.8 0.9 0.0
1.2000000000000002 0.9 0.0
1.6 0.9 0.0
2.0 0.9 0.0
2.4000000000000004 0.9 0.0
2.8000000000000003 0.9 0.0
3.2 0.9 0.0
3.6 0.9 0.0
4.0 0.9 0.0
4.4 0.9 0.0
4.800000000000001 0.9 0.0
5.2 0.9 0.0
5.6000000000000005 0.9 0.0
6.0 0.9 0.0
6.4 0.9 0.0
6.800000000000001 0.9 0.0
7.2 0.9 0.0
7.6000000000000005 0.9 0.0
8.0 0.9 0.0
8.4 0.9 0.0
8.8 0.9 0.0
9.200000000000001 0.9 0.0
9.600000000000001 0.9 0.0
10.0 0.9 0.0
10.4 0.9 0.0
10.8 0.9 0.0
11.200000000000001 0.9 0.0
11.600000000000001 0.9 0.0
12.0 0.9 0.0
12.4 0.9 0.0
12.8 0.9 0.0
13.200000000000001 0.9 0.0
13.600000000000001 0.9 0.0
14.0 0.9 0.0
14.4 0.9 0.0
14.8 0.9 0.0
15.200000000000001 0.9 0.0
15.600000000000001 0.9 0.0
16.0 0.9 0.0
0.0 1.0 0.0
0.4 1.0 0.0
0.8 1.0 0.0
1.2000000000000002 1.0 0.0
1.6 1.0 0.0
2.0 1.0 0.0
2.4000000000000004 1.0 0.0
2.8000000000000003 1.0 0.0
3.2 1.0 0.0
3.6 1.0 0.0
4.0 1.0 0.0
4.4 1.0 0.0
4.800000000000001 1.0 0.0
5.2 1.0 0.0
5.6000000000000005 1.0 0.0
6.0 1.0 0.0
6.4 1.0 0.0
6.800000000000001 1.0 0.0
7.2 1.0 0.0
7.6000000000000005 1.0 0.0
8.0 1.0 0.0
8.4 1.0 0.0
8.8 1.0 0.0
9.200000000000001 1.0 0.0
9.600000000000001 1.0 0.0
10.0 1.0 0.0
10.4 1.0 0.0
10.8 1.0 0.0
11.200000000000001 1.0 0.0
11.600000000000001 1.0 0.0
12.0 1.0 0.0
12.4 1.0 0.0
12.8 1.0 0.0
13.200000000000001 1.0 0.0
13.600000000000001 1.0 0.0
14.0 1.0 0.0
14.4 1.0 0.0
14.8 1.0 0.0
15.200000000000001 1.0 0.0
15.600000000000001 1.0 0.0
16.0 1.0 0.0
0.0 1.1 0.0
0.4 1.1 0.0
0.8 1.1 0.0
1.2000000000000002 1.1 0.0
1.6 1.1 0.0
[...]
POINT_DATA 861
SCALARS Disp float 2
LOOKUP_TABLE default
0.0 0.0
0.004700556291065714 -0.085906182087767
0.008372457247760918 -0.15849379019577076
0.011317817451529604 -0.22983542702939222
0.01468277476170769 -0.29980493884834397
0.018729732125617113 -0.36837121244369986
0.0235877313142952 -0.4352065957550601
0.029308561726532383 -0.4999570855566478
0.03590917667375862 -0.5622568706781039
0.04339350544105069 -0.621744637542432
0.051760960427171855 -0.6780632566693168
0.061010186986176204 -0.7308588735343804
0.07114035144005158 -0.7797798097012547
0.08215237664260572 -0.8244760726671022
0.09405159521133391 -0.8645981936460653
0.10685261019107352 -0.8997924218518133
0.12058418666430891 -0.9296870097910377
0.1352844151046619 -0.953864597829222
0.15096512632960973 -0.9718265494556264
0.16752428222755592 -0.9829884195652149
0.1846345344062954 -0.9867934635998127
0.20174478658503514 -0.9829884195652149
0.2183039424829811 -0.9718265494556263
0.23398465370792912 -0.9538645978292217
0.24868488214828202 -0.9296870097910375
0.26241645862151747 -0.8997924218518131
0.2752174736012569 -0.8645981936460647
0.28711669216998514 -0.824476072667102
0.29812871737253926 -0.7797798097012544
0.3082588818264146 -0.7308588735343803
0.317508108385419 -0.6780632566693168
0.3258755633715401 -0.621744637542432
0.3333598921388322 -0.5622568706781038
0.3399605070860585 -0.49995708555664764
0.34568133749829566 -0.4352065957550599
0.35053933668697373 -0.36837121244370014
0.35458629405088316 -0.2998049388483439
0.35795125136106126 -0.22983542702939244
0.36089661156483 -0.15849379019577062
0.36456851252152517 -0.08590618208776678
0.36926906881259086 0.0
0.02128012161543721 -0.0029191364587474885
0.02420716837060042 -0.08567862530227571
0.026233120037721956 -0.1589059813930919
0.0289622758481453 -0.23012280598439963
0.03195495541327956 -0.30018356747922553
0.035608782250108176 -0.368822210658285
0.039987021574165366 -0.4357449307958476
0.04513984175324408 -0.5005840993214362
0.051082239240298095 -0.5629737577307856
0.057818824114318774 -0.6225514254554628
0.06534976035669272 -0.6789598554855057
0.07367426536639037 -0.731845168656577
0.08279191224427387 -0.780855789416983
0.09270379585250264 -0.8256419889303857
0.10341466695168858 -0.8658549168678253
0.11493639916582606 -0.9011419595084278
0.1272905147273772 -0.9311326909907762
0.14050134782754656 -0.9554094359274796
0.15456347482421257 -0.9734673607448447
0.16937050122118286 -0.9847049330567327
0.1846345344062954 -0.9885399961890036
0.19989856759140814 -0.9847049330567327
0.2147055939883783 -0.9734673607448447
0.22876772098504441 -0.9554094359274795
0.24197855408521377 -0.931132690990776
0.2543326696467649 -0.9011419595084276
0.2658544018609023 -0.8658549168678248
0.2765652729600882 -0.8256419889303852
0.28647715656831696 -0.7808557894169829
0.2955948034462005 -0.7318451686565767
0.3039193084558981 -0.6789598554855059
0.31145024469827204 -0.6225514254554628
0.3181868295722928 -0.5629737577307857
0.3241292270593468 -0.5005840993214361
0.32928204723842547 -0.43574493079584725
0.33366028656248264 -0.36882221065828524
0.3373141133993113 -0.30018356747922553
0.34030679296444555 -0.2301228059843999
0.3430359487748689 -0.15890598139309176
0.3450619004419904 -0.08567862530227548
0.3479889471971536 -0.002919136458747496
0.04111128339856431 -0.005426594994210652
0.043210727265344834 -0.08551173572453678
0.04430108340285898 -0.15913309293024563
0.04648622526584279 -0.23040257783963225
0.049139931449314694 -0.300511365467056
0.052373466671046816 -0.3692272548080607
0.0562686346610349 -0.43622626385729446
0.060850893182515194 -0.5011453952693454
0.06613467611122054 -0.5636152846120264
0.07212354863887549 -0.6232733623835407
0.07881811814064148 -0.6797621165602847
0.08621799222094315 -0.7327276851198836
0.09432300913300193 -0.7818185545307835
0.10313412682464575 -0.8266851811037712
0.1126549430100478 -0.866979148182733
0.12289400849365752 -0.9023486640077542
0.13386616969543522 -0.9324243089456768
0.14558643354007886 -0.9567882521237339
0.1580434852187536 -0.9749309268724285
0.171141986706342 -0.9862366935654517
0.18463453440629543 -0.9900998236577564
0.19812708210624894 -0.9862366935654517
0.21122558359383728 -0.9749309268724284
0.22368263527251203 -0.9567882521237339
0.2354028991171557 -0.9324243089456766
0.2463750603189334 -0.902348664007754
0.2566141258025431 -0.8669791481827325
0.26613494198794513 -0.8266851811037708
0.27494605967958896 -0.7818185545307833
0.2830510765916477 -0.7327276851198834
0.2904509506719493 -0.679762116560285
0.29714552017371537 -0.6232733623835407
0.3031343927013703 -0.5636152846120265
0.3084181756300757 -0.5011453952693453
0.313000434151556 -0.4362262638572942
0.316895602141544 -0.3692272548080609
0.32012913736327614 -0.30051136546705604
0.3227828435467481 -0.2304025778396325
0.3249679854097319 -0.15913309293024552
0.326058341547246 -0.08551173572453655
0.3281577854140265 -0.005426594994210668
0.06008630794571927 -0.007569701913101551
0.06175397261208838 -0.08546266526414939
0.06233213262341894 -0.15923366574935563
0.0639585369306253 -0.23063373552134725
0.06622766441194915 -0.3007966140397245
0.06904072103396142 -0.3695815890156534
0.07244502009413435 -0.43665081706609143
0.07645555789978789 -0.5016405775375382
0.08108000468377864 -0.5641814719277758
0.08632115032959416 -0.6239104551667225
0.09217941863720001 -0.6804700634161859
0.09865470024816045 -0.7335064229261781
0.10574695197140786 -0.7826680510292221
0.11345676090369891 -0.8276054684636287
0.12178619373606993 -0.8679704749801272
0.13074021005741623 -0.9034118557419692
0.14032780874003542 -0.9335612799725033
0.15055867659109404 -0.9580018897986265
0.16142475816335064 -0.9762220711950279
0.17285273113098204 -0.9875945555119243
0.18463453440629543 -0.9914871966215982
0.1964163376816089 -0.9875945555119242
0.20784431064924025 -0.9762220711950278
0.21871039222149685 -0.9580018897986265
0.2289412600725555 -0.9335612799725032
0.23852885875517466 -0.903411855741969
0.24748287507652095 -0.8679704749801267
0.255812307908892 -0.8276054684636281
0.263522116841183 -0.7826680510292219
0.27061436856443044 -0.7335064229261777
0.27708965017539083 -0.680470063416186
0.2829479184829967 -0.6239104551667226
0.28818906412881223 -0.5641814719277757
0.29281351091280294 -0.5016405775375381
0.2968240487184565 -0.4366508170660911
0.30022834777862945 -0.3695815890156537
0.3030414044006417 -0.3007966140397245
0.30531053188196555 -0.2306337355213475
0.30693693618917184 -0.1592336657493555
0.30751509620050244 -0.08546266526414915
0.3091827608668715 -0.007569701913101571
0.07851428467601336 -0.009395042184876612
0.07992183010727079 -0.0855253817602552
0.08022723876537312 -0.15926187160381886
0.08137345043501351 -0.23080456037533284
0.08323208228094318 -0.30103680795097537
0.08561986343902986 -0.3698849776311789
0.08853017397687332 -0.4370177096776224
0.09196712485842513 -0.5020695998133405
0.09593180321317019 -0.5646722414476264
0.10042507034709053 -0.6244627179086423
0.10544705554631356 -0.6810837030443518
0.11099773573637058 -0.7341813771614926
0.11707708731904436 -0.7834042311221463
0.12368516696639871 -0.828402714051149
0.13082231330215477 -0.8688286115261462
0.13848986743635053 -0.9043311115704045
0.14669185176084779 -0.9345433743536967
0.1554359075075859 -0.9590513884166536
0.16472426343668417 -0.9773450725753703
0.17451372770013004 -0.9887875726740747
0.1846345344062954 -0.9927139919679407
0.1947553411124609 -0.9887875726740745
0.20454480537590677 -0.9773450725753701
0.21383316130500496 -0.9590513884166535
0.2225772170517431 -0.9345433743536965
0.23077920137624033 -0.9043311115704044
0.23844675551043612 -0.8688286115261457
0.2455839018461922 -0.8284027140511484
0.25219198149354655 -0.7834042311221461
0.2582713330762203 -0.7341813771614923
0.2638220132662773 -0.6810837030443518
0.26884399846550033 -0.6244627179086424
0.2733372655994207 -0.5646722414476265
0.2773019439541657 -0.5020695998133404
0.2807388948357175 -0.43701770967762205
0.28364920537356103 -0.36988497763117917
0.28603698653164766 -0.3010368079509754
0.2878956183775773 -0.2308045603753331
0.28904183004721773 -0.15926187160381874
0.28934723870532003 -0.08552538176025497
0.2907547841365774 -0.009395042184876636
0.09657277137179653 -0.010945451986093145
0.0977959220536938 -0.08567415257435355
0.09795725804862107 -0.15925516529346204
0.09871518951495437 -0.23091799501945226
0.10016436715870428 -0.30122905321281496
0.10212199094243733 -0.37013730606015216
0.1045369944959633 -0.43732653448318326
0.10739908224704062 -0.502432312468175
0.1107035263939846 -0.5650875601153617
0.11444876245452486 -0.6249301393395026
0.11863441897242137 -0.681603037355902
0.12326045875700584 -0.7347525383597758
0.12832678980837128 -0.7840270592981072
0.13383286554640333 -0.8290768323908518
0.1397772607730144 -0.8695534017389378
0.14615784721768485 -0.9051062360207685
0.15297442676940784 -0.9353706019871354
0.16023493059783514 -0.9599377405710088
0.16795693333923487 -0.9783034293272965
0.17613390203384038 -0.9898232444632342
0.18463453440629543 -0.9937904236969934
0.1931351667787505 -0.9898232444632341
0.20131213547335608 -0.9783034293272963
0.20903413821475572 -0.9599377405710088
0.216294642043183 -0.9353706019871352
0.22311122159490596 -0.9051062360207682
0.22949180803957647 -0.8695534017389375
0.23543620326618755 -0.8290768323908515
0.24094227900421963 -0.784027059298107
0.24600861005558505 -0.7347525383597756
0.2506346498401695 -0.6816030373559021
0.25482030635806596 -0.6249301393395026
0.25856554241860624 -0.5650875601153617
0.2618699865655502 -0.5024323124681749
0.26473207431662754 -0.4373265344831829
0.2671470778701535 -0.3701373060601524
0.26910470165388656 -0.30122905321281496
0.27055387929763647 -0.2309179950194525
0.27131181076396976 -0.15925516529346193
0.271473146758897 -0.08567415257435333
0.27269629744079427 -0.010945451986093174
0.11437249103469413 -0.012258178147159857
0.11544455694202994 -0.08588041398445916
0.11552614102416849 -0.1592358558408519
0.11597463058689747 -0.2309824267043331
0.1170322872313888 -0.30137265295939
0.1185589439165206 -0.37033836799834596
0.12047816078523278 -0.4375771984069488
0.12276481179161898 -0.5027285988983916
0.12540862059106866 -0.5654273951462089
0.12840565851525979 -0.625312704476595
0.13175490293135936 -0.682028059419605
0.13545623787133337 -0.7352198963886536
0.13950945372303117 -0.7845365149725355
0.14391340263669233 -0.8296277922410782
0.14866500544248393 -0.8701448152107523
0.1537589471963741 -0.9057372331402657
0.15919135715555488 -0.9360431234871808
0.16497172623459652 -0.9606617149757584
0.1711362092306073 -0.9790997056400933
0.17772071704769538 -0.9907076915198441
0.18463453440629546 -0.9947255765516712
0.19154835176489549 -0.990707691519844
0.19813285958198365 -0.9790997056400931
0.20429734257799428 -0.9606617149757583
0.21007771165703595 -0.9360431234871804
0.21551012161621677 -0.9057372331402654
0.22060406337010696 -0.870144815210752
0.22535566617589853 -0.8296277922410777
0.22975961508955972 -0.7845365149725353
0.23381283094125754 -0.7352198963886535
0.2375141658812315 -0.6820280594196051
0.24086341029733102 -0.625312704476595
0.24386044822152222 -0.5654273951462089
0.24650425702097187 -0.5027285988983915
0.24879090802735804 -0.4375771984069485
0.25071012489607025 -0.3703383679983462
0.25223678158120205 -0.30137265295939003
0.25329443822569336 -0.23098242670433333
0.25374292778842233 -0.15923585584085181
0.2538245118705609 -0.08588041398445893
0.2548965777778967 -0.012258178147159881
0.13198747174384814 -0.013364535164653107
0.13292290796775086 -0.08611885517539913
0.13295272195910124 -0.1592153419461422
0.13315156016520396 -0.2310069835758615
0.1338428454166144 -0.3014689569976478
0.13494249257369367 -0.37048822894740346
0.13636643972054968 -0.43776976210693536
0.1380775990767273 -0.502958420653856
0.14006051541355433 -0.5656917153163002
0.14230917754190126 -0.6256103955947155
0.1448218999033339 -0.682358756645927
0.14759844833058944 -0.7355834414020378
0.15063848355948053 -0.7849325935905478
0.15394032543354336 -0.8300556143896004
0.15749947707108194 -0.8706029379104899
0.16130783636499563 -0.9062242823569859
0.16535817521120402 -0.936561191585057
0.1696616854213931 -0.9612237413810972
0.1742745317481722 -0.9797354144835113
0.17928059788564318 -0.991445755388729
0.18463453440629546 -0.9955278529569278
0.18998847092694762 -0.9914457553887288
0.1949945370644187 -0.9797354144835112
0.1996073833911977 -0.961223741381097
0.20391089360138684 -0.9365611915850567
0.20796123244759523 -0.9062242823569858
0.21176959174150892 -0.8706029379104896
0.21532874337904748 -0.8300556143895998
0.21863058525311035 -0.7849325935905477
0.22167062048200142 -0.7355834414020376
0.22444716890925695 -0.682358756645927
0.22695989127068955 -0.6256103955947155
0.2292085533990365 -0.5656917153163004
0.23119146973586352 -0.5029584206538558
0.23290262909204112 -0.43776976210693497
0.23432657623889716 -0.37048822894740374
0.23542622339597644 -0.3014689569976478
0.23611750864738684 -0.23100698357586172
0.2363163468534896 -0.15921534194614206
0.23634616084483998 -0.08611885517539894
0.2372815970687427 -0.01336453516465313
0.14947032945704444 -0.01429046549960411
0.15027553883411632 -0.08636909732795238
0.15026174536726244 -0.1591979507826243
0.1502530507117397 -0.23099951839828364
0.15060407484315538 -0.3015205532727712
0.15128431584744748 -0.37058740333748436
0.15221469376643368 -0.4379044025064715
0.15335070391306047 -0.5031218065688824
0.15467261563942059 -0.5658805003814269
0.1561727291684658 -0.6258231919845522
0.15784879918864844 -0.6825951128925872
0.1597004688667177 -0.7358431646592883
0.1617272859170129 -0.7852153055446717
0.16392716117882358 -0.830360365327961
0.16629452189266825 -0.8709279580840783
0.16881900069186698 -0.9065677196181118
0.17149014525649064 -0.9369251260724822
0.17431985727649107 -0.9616238530983167
0.1773837984794467 -0.9802109119925171
0.18081925872221544 -0.9920410158564713
0.1846345344062954 -0.9962053929131439
0.18844981009037545 -0.9920410158564711
0.19188527033314412 -0.9802109119925171
0.1949492115360998 -0.9616238530983164
0.19777892355610013 -0.936925126072482
0.2004500681207239 -0.9065677196181117
0.2029745469199226 -0.8709279580840781
0.20534190763376725 -0.8303603653279606
0.20754178289557795 -0.7852153055446716
0.20956859994587318 -0.7358431646592882
0.2114202696239424 -0.6825951128925872
0.21309633964412505 -0.625823191984552
0.21459645317317025 -0.5658805003814268
0.21591836489953034 -0.5031218065688823
0.21705437504615713 -0.43790440250647106
0.21798475296514333 -0.37058740333748463
0.2186649939694354 -0.3015205532727712
0.2190160181008511 -0.2309995183982839
0.2190073234453284 -0.15919795078262416
0.21899352997847454 -0.08636909732795219
0.2197987393555464 -0.014290465499604143
0.1668605658679906 -0.015057485434693348
0.1675389873696187 -0.08661564074489433
0.16747952973982647 -0.15918377693820507
0.1672912572729969 -0.23096599293496697
0.1673257730369665 -0.3015305177985408
0.16759626913746453 -0.37063682308444235
0.16803586777608004 -0.43798141400054263
0.1685974005822903 -0.5032188341757964
0.16925830761758137 -0.5659937436174158
0.17000971285210079 -0.6259510713560915
0.17084898646971305 -0.6827371095239606
0.17177567875709096 -0.7359990589030154
0.17278926273132747 -0.7853846735241204
0.17388740072058517 -0.830542147418416
0.17506386561378331 -0.8711201472667435
0.17630668906452482 -0.9067680227184549
0.17760227718467275 -0.9371353234040457
0.17896119485222234 -0.9618616880314422
0.1804758227066899 -0.9805252920895673
0.1823419875336413 -0.9924957109836262
0.1846345344062954 -0.9967665152300228
0.18692708127894955 -0.9924957109836261
0.18879324610590092 -0.9805252920895673
0.1903078739603685 -0.961861688031442
0.19166679162791805 -0.9371353234040456
0.19296237974806602 -0.9067680227184548
0.1942052031988075 -0.8711201472667432
0.1953816680920057 -0.8305421474184158
0.19647980608126336 -0.7853846735241203
0.19749339005549996 -0.7359990589030151
0.19842008234287778 -0.6827371095239606
0.19925935596049008 -0.6259510713560915
0.20001076119500946 -0.5659937436174156
0.2006716682303005 -0.5032188341757962
0.20123320103651077 -0.4379814140005422
0.2016727996751263 -0.3706368230844425
0.20194329577562434 -0.3015305177985408
0.2019778115395939 -0.23096599293496717
0.20178953907276434 -0.15918377693820493
0.20173008144297216 -0.08661564074489414
0.2024085029446002 -0.015057485434693381
0.18418930006186063 -0.015683712628631497
0.1847438441578945 -0.08684721452058698
0.18463196166251863 -0.15917060742117015
0.18428156666574763 -0.2309105199191
0.1840195884583027 -0.3015018984050604
0.1838906410356266 -0.370637700665566
0.18384301377644477 -0.43800119788679287
0.18383099369734726 -0.5032496148664907
0.18383096823716982 -0.5660314489983945
0.18383351746168455 -0.6259940111818137
0.1838358431711812 -0.6827847262448707
0.183837455684717 -0.7360511181439175
0.18383780615152165 -0.7854407288342861
0.1838344878271685 -0.8306010865186592
0.18382108586134668 -0.8711798358575583
0.18378485547715673 -0.9068257968761086
0.18370930850283104 -0.9371922996263846
0.18360078298598798 -0.9619365565819963
0.18356283224023034 -0.9806762820337911
0.18385393968256528 -0.99281053132975
0.1846345344062954 -0.9972202273990809
0.18541512913002556 -0.99281053132975
0.1857062365723605 -0.980676282033791
0.18566828582660283 -0.9619365565819961
0.18555976030975976 -0.9371922996263846
0.18548421333543408 -0.9068257968761084
0.18544798295124412 -0.8711798358575584
0.18543458098542234 -0.8306010865186589
0.18543126266106918 -0.785440728834286
0.1854316131278739 -0.7360511181439172
0.18543322564140963 -0.6827847262448709
0.18543555135090628 -0.6259940111818137
0.185438100575421 -0.5660314489983942
0.18543807511524352 -0.5032496148664906
0.18542605503614604 -0.43800119788679237
0.18537842777696426 -0.3706377006655663
0.18524948035428812 -0.3015018984050605
0.18498750214684323 -0.2309105199191002
0.18463710715007217 -0.15917060742117
0.1845252246546963 -0.08684721452058679
0.1850797687507302 -0.01568371262863153
0.20148204395716865 -0.01618482955917608
0.20191627727754974 -0.08705600131797059
0.20174365220099827 -0.15915516270634894
0.2012412629629659 -0.23083567095268326
0.20069880913722743 -0.30143742034410664
0.20018030522663985 -0.37059136713618557
0.19964933419288663 -0.4379642290636003
0.19906482481163904 -0.5032142804404621
0.19840397046682448 -0.56599362637804
0.19765752171951914 -0.6259519892393093
0.1968227458601193 -0.6827379419037095
0.1958991744517019 -0.7359993369981661
0.19488629519511044 -0.7853835071221335
0.19378181452804946 -0.8305373184385987
0.19257959793428217 -0.871107382908428
0.19126709797488328 -0.906741753272546
0.18982562971076364 -0.9370967611725901
0.18825402067066363 -0.9618475935339571
0.18665805326459278 -0.9806601546258644
0.18536050281615596 -0.9929842403108442
0.18463453440629543 -0.9975768566400754
0.18390856599643488 -0.9929842403108442
0.18261101554799802 -0.9806601546258643
0.18101504814192715 -0.9618475935339569
0.17944343910182717 -0.9370967611725901
0.17800197083770752 -0.9067417532725459
0.1766894708783087 -0.871107382908428
0.17548725428454134 -0.8305373184385985
0.17438277361748036 -0.7853835071221333
0.17336989436088898 -0.7359993369981659
0.17244632295247156 -0.6827379419037096
0.17161154709307166 -0.6259519892393093
0.17086509834576635 -0.5659936263780397
0.17020424400095174 -0.503214280440462
0.1696197346197042 -0.4379642290635999
0.16908876358595096 -0.37059136713618585
0.1685702596753634 -0.3014374203441067
0.16802780584962493 -0.23083567095268348
0.1675254166115926 -0.1591551627063488
0.16735279153504107 -0.08705600131797037
0.16778702485542218 -0.01618482955917613
0.21876033253689875 -0.016574927870541555
0.21907908556997713 -0.08723692074574435
0.21883766285549333 -0.1591338708044775
0.21818864974799818 -0.23074285811780498
0.2173780617299822 -0.30133935285807156
0.21647876818881845 -0.3704991260547096
0.2154682171222677 -0.4378710064526005
0.2143122755525373 -0.5031129680354148
0.21299068495324106 -0.5658802863969243