# vtk DataFile Version 3.0
Some data
ASCII
DATASET UNSTRUCTURED_GRID
POINTS 861 float
0.0 0.0 0.0
0.4 0.0 0.0
0.8 0.0 0.0
1.2000000000000002 0.0 0.0
1.6 0.0 0.0
2.0 0.0 0.0
2.4000000000000004 0.0 0.0
2.8000000000000003 0.0 0.0
3.2 0.0 0.0
3.6 0.0 0.0
4.0 0.0 0.0
4.4 0.0 0.0
4.800000000000001 0.0 0.0
5.2 0.0 0.0
5.6000000000000005 0.0 0.0
6.0 0.0 0.0
6.4 0.0 0.0
6.800000000000001 0.0 0.0
7.2 0.0 0.0
7.6000000000000005 0.0 0.0
8.0 0.0 0.0
8.4 0.0 0.0
8.8 0.0 0.0
9.200000000000001 0.0 0.0
9.600000000000001 0.0 0.0
10.0 0.0 0.0
10.4 0.0 0.0
10.8 0.0 0.0
11.200000000000001 0.0 0.0
11.600000000000001 0.0 0.0
12.0 0.0 0.0
12.4 0.0 0.0
12.8 0.0 0.0
13.200000000000001 0.0 0.0
13.600000000000001 0.0 0.0
14.0 0.0 0.0
14.4 0.0 0.0
14.8 0.0 0.0
15.200000000000001 0.0 0.0
15.600000000000001 0.0 0.0
16.0 0.0 0.0
0.0 0.1 0.0
0.4 0.1 0.0
0.8 0.1 0.0
1.2000000000000002 0.1 0.0
1.6 0.1 0.0
2.0 0.1 0.0
2.4000000000000004 0.1 0.0
2.8000000000000003 0.1 0.0
3.2 0.1 0.0
3.6 0.1 0.0
4.0 0.1 0.0
4.4 0.1 0.0
4.800000000000001 0.1 0.0
5.2 0.1 0.0
5.6000000000000005 0.1 0.0
6.0 0.1 0.0
6.4 0.1 0.0
6.800000000000001 0.1 0.0
7.2 0.1 0.0
7.6000000000000005 0.1 0.0
8.0 0.1 0.0
8.4 0.1 0.0
8.8 0.1 0.0
9.200000000000001 0.1 0.0
9.600000000000001 0.1 0.0
10.0 0.1 0.0
10.4 0.1 0.0
10.8 0.1 0.0
11.200000000000001 0.1 0.0
11.600000000000001 0.1 0.0
12.0 0.1 0.0
12.4 0.1 0.0
12.8 0.1 0.0
13.200000000000001 0.1 0.0
13.600000000000001 0.1 0.0
14.0 0.1 0.0
14.4 0.1 0.0
14.8 0.1 0.0
15.200000000000001 0.1 0.0
15.600000000000001 0.1 0.0
16.0 0.1 0.0
0.0 0.2 0.0
0.4 0.2 0.0
0.8 0.2 0.0
1.2000000000000002 0.2 0.0
1.6 0.2 0.0
2.0 0.2 0.0
2.4000000000000004 0.2 0.0
2.8000000000000003 0.2 0.0
3.2 0.2 0.0
3.6 0.2 0.0
4.0 0.2 0.0
4.4 0.2 0.0
4.800000000000001 0.2 0.0
5.2 0.2 0.0
5.6000000000000005 0.2 0.0
6.0 0.2 0.0
6.4 0.2 0.0
6.800000000000001 0.2 0.0
7.2 0.2 0.0
7.6000000000000005 0.2 0.0
8.0 0.2 0.0
8.4 0.2 0.0
8.8 0.2 0.0
9.200000000000001 0.2 0.0
9.600000000000001 0.2 0.0
10.0 0.2 0.0
10.4 0.2 0.0
10.8 0.2 0.0
11.200000000000001 0.2 0.0
11.600000000000001 0.2 0.0
12.0 0.2 0.0
12.4 0.2 0.0
12.8 0.2 0.0
13.200000000000001 0.2 0.0
13.600000000000001 0.2 0.0
14.0 0.2 0.0
14.4 0.2 0.0
14.8 0.2 0.0
15.200000000000001 0.2 0.0
15.600000000000001 0.2 0.0
16.0 0.2 0.0
0.0 0.30000000000000004 0.0
0.4 0.30000000000000004 0.0
0.8 0.30000000000000004 0.0
1.2000000000000002 0.30000000000000004 0.0
1.6 0.30000000000000004 0.0
2.0 0.30000000000000004 0.0
2.4000000000000004 0.30000000000000004 0.0
2.8000000000000003 0.30000000000000004 0.0
3.2 0.30000000000000004 0.0
3.6 0.30000000000000004 0.0
4.0 0.30000000000000004 0.0
4.4 0.30000000000000004 0.0
4.800000000000001 0.30000000000000004 0.0
5.2 0.30000000000000004 0.0
5.6000000000000005 0.30000000000000004 0.0
6.0 0.30000000000000004 0.0
6.4 0.30000000000000004 0.0
6.800000000000001 0.30000000000000004 0.0
7.2 0.30000000000000004 0.0
7.6000000000000005 0.30000000000000004 0.0
8.0 0.30000000000000004 0.0
8.4 0.30000000000000004 0.0
8.8 0.30000000000000004 0.0
9.200000000000001 0.30000000000000004 0.0
9.600000000000001 0.30000000000000004 0.0
10.0 0.30000000000000004 0.0
10.4 0.30000000000000004 0.0
10.8 0.30000000000000004 0.0
11.200000000000001 0.30000000000000004 0.0
11.600000000000001 0.30000000000000004 0.0
12.0 0.30000000000000004 0.0
12.4 0.30000000000000004 0.0
12.8 0.30000000000000004 0.0
13.200000000000001 0.30000000000000004 0.0
13.600000000000001 0.30000000000000004 0.0
14.0 0.30000000000000004 0.0
14.4 0.30000000000000004 0.0
14.8 0.30000000000000004 0.0
15.200000000000001 0.30000000000000004 0.0
15.600000000000001 0.30000000000000004 0.0
16.0 0.30000000000000004 0.0
0.0 0.4 0.0
0.4 0.4 0.0
0.8 0.4 0.0
1.2000000000000002 0.4 0.0
1.6 0.4 0.0
2.0 0.4 0.0
2.4000000000000004 0.4 0.0
2.8000000000000003 0.4 0.0
3.2 0.4 0.0
3.6 0.4 0.0
4.0 0.4 0.0
4.4 0.4 0.0
4.800000000000001 0.4 0.0
5.2 0.4 0.0
5.6000000000000005 0.4 0.0
6.0 0.4 0.0
6.4 0.4 0.0
6.800000000000001 0.4 0.0
7.2 0.4 0.0
7.6000000000000005 0.4 0.0
8.0 0.4 0.0
8.4 0.4 0.0
8.8 0.4 0.0
9.200000000000001 0.4 0.0
9.600000000000001 0.4 0.0
10.0 0.4 0.0
10.4 0.4 0.0
10.8 0.4 0.0
11.200000000000001 0.4 0.0
11.600000000000001 0.4 0.0
12.0 0.4 0.0
12.4 0.4 0.0
12.8 0.4 0.0
13.200000000000001 0.4 0.0
13.600000000000001 0.4 0.0
14.0 0.4 0.0
14.4 0.4 0.0
14.8 0.4 0.0
15.200000000000001 0.4 0.0
15.600000000000001 0.4 0.0
16.0 0.4 0.0
0.0 0.5 0.0
0.4 0.5 0.0
0.8 0.5 0.0
1.2000000000000002 0.5 0.0
1.6 0.5 0.0
2.0 0.5 0.0
2.4000000000000004 0.5 0.0
2.8000000000000003 0.5 0.0
3.2 0.5 0.0
3.6 0.5 0.0
4.0 0.5 0.0
4.4 0.5 0.0
4.800000000000001 0.5 0.0
5.2 0.5 0.0
5.6000000000000005 0.5 0.0
6.0 0.5 0.0
6.4 0.5 0.0
6.800000000000001 0.5 0.0
7.2 0.5 0.0
7.6000000000000005 0.5 0.0
8.0 0.5 0.0
8.4 0.5 0.0
8.8 0.5 0.0
9.200000000000001 0.5 0.0
9.600000000000001 0.5 0.0
10.0 0.5 0.0
10.4 0.5 0.0
10.8 0.5 0.0
11.200000000000001 0.5 0.0
11.600000000000001 0.5 0.0
12.0 0.5 0.0
12.4 0.5 0.0
12.8 0.5 0.0
13.200000000000001 0.5 0.0
13.600000000000001 0.5 0.0
14.0 0.5 0.0
14.4 0.5 0.0
14.8 0.5 0.0
15.200000000000001 0.5 0.0
15.600000000000001 0.5 0.0
16.0 0.5 0.0
0.0 0.6000000000000001 0.0
0.4 0.6000000000000001 0.0
0.8 0.6000000000000001 0.0
1.2000000000000002 0.6000000000000001 0.0
1.6 0.6000000000000001 0.0
2.0 0.6000000000000001 0.0
2.4000000000000004 0.6000000000000001 0.0
2.8000000000000003 0.6000000000000001 0.0
3.2 0.6000000000000001 0.0
3.6 0.6000000000000001 0.0
4.0 0.6000000000000001 0.0
4.4 0.6000000000000001 0.0
4.800000000000001 0.6000000000000001 0.0
5.2 0.6000000000000001 0.0
5.6000000000000005 0.6000000000000001 0.0
6.0 0.6000000000000001 0.0
6.4 0.6000000000000001 0.0
6.800000000000001 0.6000000000000001 0.0
7.2 0.6000000000000001 0.0
7.6000000000000005 0.6000000000000001 0.0
8.0 0.6000000000000001 0.0
8.4 0.6000000000000001 0.0
8.8 0.6000000000000001 0.0
9.200000000000001 0.6000000000000001 0.0
9.600000000000001 0.6000000000000001 0.0
10.0 0.6000000000000001 0.0
10.4 0.6000000000000001 0.0
10.8 0.6000000000000001 0.0
11.200000000000001 0.6000000000000001 0.0
11.600000000000001 0.6000000000000001 0.0
12.0 0.6000000000000001 0.0
12.4 0.6000000000000001 0.0
12.8 0.6000000000000001 0.0
13.200000000000001 0.6000000000000001 0.0
13.600000000000001 0.6000000000000001 0.0
14.0 0.6000000000000001 0.0
14.4 0.6000000000000001 0.0
14.8 0.6000000000000001 0.0
15.200000000000001 0.6000000000000001 0.0
15.600000000000001 0.6000000000000001 0.0
16.0 0.6000000000000001 0.0
0.0 0.7000000000000001 0.0
0.4 0.7000000000000001 0.0
0.8 0.7000000000000001 0.0
1.2000000000000002 0.7000000000000001 0.0
1.6 0.7000000000000001 0.0
2.0 0.7000000000000001 0.0
2.4000000000000004 0.7000000000000001 0.0
2.8000000000000003 0.7000000000000001 0.0
3.2 0.7000000000000001 0.0
3.6 0.7000000000000001 0.0
4.0 0.7000000000000001 0.0
4.4 0.7000000000000001 0.0
4.800000000000001 0.7000000000000001 0.0
5.2 0.7000000000000001 0.0
5.6000000000000005 0.7000000000000001 0.0
6.0 0.7000000000000001 0.0
6.4 0.7000000000000001 0.0
6.800000000000001 0.7000000000000001 0.0
7.2 0.7000000000000001 0.0
7.6000000000000005 0.7000000000000001 0.0
8.0 0.7000000000000001 0.0
8.4 0.7000000000000001 0.0
8.8 0.7000000000000001 0.0
9.200000000000001 0.7000000000000001 0.0
9.600000000000001 0.7000000000000001 0.0
10.0 0.7000000000000001 0.0
10.4 0.7000000000000001 0.0
10.8 0.7000000000000001 0.0
11.200000000000001 0.7000000000000001 0.0
11.600000000000001 0.7000000000000001 0.0
12.0 0.7000000000000001 0.0
12.4 0.7000000000000001 0.0
12.8 0.7000000000000001 0.0
13.200000000000001 0.7000000000000001 0.0
13.600000000000001 0.7000000000000001 0.0
14.0 0.7000000000000001 0.0
14.4 0.7000000000000001 0.0
14.8 0.7000000000000001 0.0
15.200000000000001 0.7000000000000001 0.0
15.600000000000001 0.7000000000000001 0.0
16.0 0.7000000000000001 0.0
0.0 0.8 0.0
0.4 0.8 0.0
0.8 0.8 0.0
1.2000000000000002 0.8 0.0
1.6 0.8 0.0
2.0 0.8 0.0
2.4000000000000004 0.8 0.0
2.8000000000000003 0.8 0.0
3.2 0.8 0.0
3.6 0.8 0.0
4.0 0.8 0.0
4.4 0.8 0.0
4.800000000000001 0.8 0.0
5.2 0.8 0.0
5.6000000000000005 0.8 0.0
6.0 0.8 0.0
6.4 0.8 0.0
6.800000000000001 0.8 0.0
7.2 0.8 0.0
7.6000000000000005 0.8 0.0
8.0 0.8 0.0
8.4 0.8 0.0
8.8 0.8 0.0
9.200000000000001 0.8 0.0
9.600000000000001 0.8 0.0
10.0 0.8 0.0
10.4 0.8 0.0
10.8 0.8 0.0
11.200000000000001 0.8 0.0
11.600000000000001 0.8 0.0
12.0 0.8 0.0
12.4 0.8 0.0
12.8 0.8 0.0
13.200000000000001 0.8 0.0
13.600000000000001 0.8 0.0
14.0 0.8 0.0
14.4 0.8 0.0
14.8 0.8 0.0
15.200000000000001 0.8 0.0
15.600000000000001 0.8 0.0
16.0 0.8 0.0
0.0 0.9 0.0
0.4 0.9 0.0
0.8 0.9 0.0
1.2000000000000002 0.9 0.0
1.6 0.9 0.0
2.0 0.9 0.0
2.4000000000000004 0.9 0.0
2.8000000000000003 0.9 0.0
3.2 0.9 0.0
3.6 0.9 0.0
4.0 0.9 0.0
4.4 0.9 0.0
4.800000000000001 0.9 0.0
5.2 0.9 0.0
5.6000000000000005 0.9 0.0
6.0 0.9 0.0
6.4 0.9 0.0
6.800000000000001 0.9 0.0
7.2 0.9 0.0
7.6000000000000005 0.9 0.0
8.0 0.9 0.0
8.4 0.9 0.0
8.8 0.9 0.0
9.200000000000001 0.9 0.0
9.600000000000001 0.9 0.0
10.0 0.9 0.0
10.4 0.9 0.0
10.8 0.9 0.0
11.200000000000001 0.9 0.0
11.600000000000001 0.9 0.0
12.0 0.9 0.0
12.4 0.9 0.0
12.8 0.9 0.0
13.200000000000001 0.9 0.0
13.600000000000001 0.9 0.0
14.0 0.9 0.0
14.4 0.9 0.0
14.8 0.9 0.0
15.200000000000001 0.9 0.0
15.600000000000001 0.9 0.0
16.0 0.9 0.0
0.0 1.0 0.0
0.4 1.0 0.0
0.8 1.0 0.0
1.2000000000000002 1.0 0.0
1.6 1.0 0.0
2.0 1.0 0.0
2.4000000000000004 1.0 0.0
2.8000000000000003 1.0 0.0
3.2 1.0 0.0
3.6 1.0 0.0
4.0 1.0 0.0
4.4 1.0 0.0
4.800000000000001 1.0 0.0
5.2 1.0 0.0
5.6000000000000005 1.0 0.0
6.0 1.0 0.0
6.4 1.0 0.0
6.800000000000001 1.0 0.0
7.2 1.0 0.0
7.6000000000000005 1.0 0.0
8.0 1.0 0.0
8.4 1.0 0.0
8.8 1.0 0.0
9.200000000000001 1.0 0.0
9.600000000000001 1.0 0.0
10.0 1.0 0.0
10.4 1.0 0.0
10.8 1.0 0.0
11.200000000000001 1.0 0.0
11.600000000000001 1.0 0.0
12.0 1.0 0.0
12.4 1.0 0.0
12.8 1.0 0.0
13.200000000000001 1.0 0.0
13.600000000000001 1.0 0.0
14.0 1.0 0.0
14.4 1.0 0.0
14.8 1.0 0.0
15.200000000000001 1.0 0.0
15.600000000000001 1.0 0.0
16.0 1.0 0.0
0.0 1.1 0.0
0.4 1.1 0.0
0.8 1.1 0.0
1.2000000000000002 1.1 0.0
1.6 1.1 0.0
[...]
POINT_DATA 861
SCALARS Disp float 2
LOOKUP_TABLE default
0.0 0.0
0.0056610903540420055 -0.2361170508883486
0.006952453164308457 -0.46323026874754814
0.007730448959850391 -0.6893333114748456
0.008725873107254898 -0.9150817445089366
0.01031127170154588 -1.1400871401512915
0.013068202846566781 -1.3638351812541107
0.017700065192621853 -1.5856798466782793
0.02503289738079415 -1.8048152630605623
0.03596702251523586 -2.020195793802009
0.051404346561537556 -2.230413054091956
0.07220287089544589 -2.433617089762313
0.0991557044415049 -2.6275350810194666
0.1329827020343053 -2.8095764387656863
0.17432923915907744 -2.976912378581026
0.2236997734476837 -3.126536875807511
0.2813351387354314 -3.255342454191068
0.347062588953449 -3.360244248267448
0.4201649868279386 -3.43838957015309
0.49932320392464785 -3.48740251251261
0.5824322195693536 -3.5056590077947365
0.6655412352140561 -3.487402512512501
0.7446994523107491 -3.4383895701528684
0.8178018501852098 -3.3602442482671266
0.8835293004031902 -3.2553424541906653
0.9411646656908992 -3.126536875807052
0.9905351999794665 -2.976912378580522
1.0318817371041995 -2.809576438765152
1.0657087346969598 -2.627535081018919
1.092661568242981 -2.4336170897617704
1.1134600925768559 -2.2304130540914318
1.1288974166231298 -2.020195793801516
1.13983154175755 -1.8048152630601058
1.1471643739457063 -1.5856798466778679
1.1517962362917502 -1.3638351812537475
1.1545531674367644 -1.1400871401509836
1.1561385660310521 -0.9150817445086842
1.1571339901784559 -0.689333311474652
1.1579119859739975 -0.46323026874741235
1.1592033487842626 -0.23611705088827312
1.1648644391383012 0.0
0.05889740822318555 -0.0023648593078000263
0.06284429303017039 -0.23636775211416416
0.06352121290903981 -0.46329193792161916
0.06421195109772546 -0.6894217290692212
0.06508707598589943 -0.9152213356933092
0.06643733852352489 -1.1403915856834812
0.06880977165900999 -1.3644632212383705
0.07286890255056166 -1.5868206781661292
0.07939094316974218 -1.8066801454822887
0.08919839062694532 -2.022999863211906
0.10309604570311803 -2.2343626988917134
0.12183418017769547 -2.438904761573332
0.14611041151916135 -2.634339294744961
0.17657979849383484 -2.818061409292225
0.21383246922223306 -2.9872208990142304
0.2583392043291368 -3.1387673028710514
0.31034015071991256 -3.2695146768453855
0.36971128458155506 -3.376264658549337
0.43584112341610687 -3.4560229107527456
0.5074868964392575 -3.5062479014939574
0.5824322195693404 -3.525003805351631
0.6573775426994195 -3.506247901493846
0.7290233157225551 -3.456022910752518
0.7951531545570816 -3.376264658549008
0.8545242884186917 -3.2695146768449743
0.906525234809433 -3.138767302870583
0.9510319699163016 -2.987220899013717
0.9882846406446644 -2.818061409291682
1.0187540276193021 -2.634339294744405
1.043030258960734 -2.4389047615727804
1.061768393435281 -2.2343626988911818
1.0756660485114287 -2.022999863211407
1.0854734959686123 -1.806680145481828
1.091995536587778 -1.5868206781657146
1.09605466747932 -1.3644632212380055
1.098427100614799 -1.1403915856831726
1.0997773631524221 -0.9152213356930566
1.1006524880405955 -0.6894217290690278
1.1013432262292808 -0.4632919379214834
1.1020201461081502 -0.23636775211408834
1.1059670309151295 -0.0023648593077975092
0.11683202146565332 -0.004239282998531032
0.11972117748338391 -0.2364916160339201
0.12010988212096463 -0.4633253659430696
0.12067369689322947 -0.6894996951211555
0.12143785894968942 -0.9153332719497852
0.12257695167794552 -1.1406325010352034
0.12457358175139652 -1.364982841456678
0.12806263423607858 -1.5877982015277532
0.13376014723519072 -1.808312046004405
0.14241359953050323 -2.025480525163295
0.15473508358632362 -2.237873818419945
0.17137677060406142 -2.4436135625080557
0.1929432307762458 -2.6404033736224495
0.2200118374055178 -2.82563017165308
0.2531217679127069 -2.996425646194623
0.292710003589433 -3.1497017954480415
0.33902528039703805 -3.282205881814083
0.3920090319269115 -3.390639550075974
0.45114967283502383 -3.4718740715810767
0.5152745747165544 -3.5231720671478555
0.5824322195693277 -3.542380037546962
0.6495898644220965 -3.523172067147741
0.7137147663036135 -3.471874071580845
0.7728554072117033 -3.390639550075638
0.8258391587415489 -3.2822058818136637
0.8721544355491235 -3.149701795447565
0.9117426712258181 -2.9964256461941017
0.9448526017329756 -2.8256301716525285
0.9719212083622157 -2.6404033736218855
0.9934876685343705 -2.443613562507497
1.010129355552081 -2.2378738184194074
1.022450839607879 -2.0254805251627905
1.0311042919031737 -1.8083120460039406
1.0368018049022727 -1.587798201527336
1.040290857386946 -1.3649828414563112
1.0422874874603922 -1.140632501034894
1.0434265801886466 -0.9153332719495324
1.044190742245106 -0.689499695120962
1.0447545570173709 -0.46332536594293394
1.0451432616549514 -0.23649161603384397
1.0480324176726767 -0.004239282998525775
0.1742595412641574 -0.0057444831831105336
0.1764393362850231 -0.2365759491349176
0.17667663713594745 -0.46334391902101907
0.17711786636273394 -0.689563036682723
0.1777731061438351 -0.915425209210637
0.17872667418920393 -1.1408176017887817
0.1803692722680611 -1.3653977453259416
0.18329469498434825 -1.588613592018181
0.18816309802059664 -1.8097080712852918
0.19564647514893813 -2.027632282123977
0.20636877212530558 -2.240939670081095
0.2208882078233601 -2.4477374270094447
0.2397206607340397 -2.645721290247013
0.2633644578727685 -2.83227431968382
0.2922954742857166 -3.0045163975683757
0.32692396831264786 -3.159329448305002
0.36751114947057695 -3.2934064451411835
0.41406332322101685 -3.403362408973407
0.4661755328044197 -3.485936805784867
0.5228503797620501 -3.5382162428296215
0.582432219569315 -3.5578804833778963
0.6420140593765759 -3.5382162428295048
0.6986889063341941 -3.4859368057846303
0.7508011159175768 -3.4033624089730656
0.7973532896679927 -3.293406445140758
0.8379404708258952 -3.159329448304518
0.8725689648527986 -3.0045163975678473
0.9014999812657191 -2.8322743196832607
0.9251437784044199 -2.645721290246442
0.9439762313150736 -2.4477374270088794
0.9584956670131043 -2.240939670080552
0.9692179639894523 -2.0276322821234682
0.9767013411177778 -1.8097080712848241
0.9815697441540148 -1.5886135920177613
0.9844951668702946 -1.3653977453255735
0.9861377649491477 -1.140817601788472
0.9870913329945153 -0.9154252092103842
0.9877465727756162 -0.6895630366825295
0.9881878020024027 -0.46334391902088345
0.988425102853327 -0.23657594913484112
0.9906048978741878 -0.0057444831831028114
0.2313972966862721 -0.00695981216468012
0.23304813122782223 -0.23664187659337713
0.23320303340340182 -0.46335458813929925
0.23354074006788492 -0.6896122346560603
0.23408933148268424 -0.9155007674677946
0.23487854831481153 -1.1409583588878938
0.23620332338237932 -1.365715634754729
0.2385777819120594 -1.5892696507888258
0.2426226098798901 -1.8108685019203408
0.2489310580480655 -2.0294527804271394
0.258043032590741 -2.243557038608282
0.27042761596450665 -2.451272721296195
0.2865115914211733 -2.6502895835782114
0.3067150810235022 -2.8379900902394115
0.33145423108622213 -3.0114872648526423
0.36109871500075363 -3.167642464966114
0.39591936109717507 -3.3031068034673305
0.43598925881160067 -3.4144218593197246
0.48103931664555627 -3.49821168111461
0.5303016748110316 -3.551411246904227
0.5824322195693028 -3.5715565145795685
0.6345627643275699 -3.5514112469041086
0.683825122493034 -3.4982116811143698
0.7288751803269722 -3.414421859319378
0.7689450780413771 -3.303106803466899
0.8037657241377756 -3.1676424649656236
0.833410208052283 -3.011487264852107
0.8581493581149792 -2.837990090238846
0.8783528477172843 -2.650289583577634
0.8944368231739284 -2.4512727212956236
0.9068214065476742 -2.243557038607734
0.9159333810903327 -2.0294527804266265
0.9222418292584946 -1.8108685019198703
0.9262866572263154 -1.5892696507884037
0.9286611157559894 -1.36571563475436
0.9299858908235542 -1.1409583588875836
0.9307751076556807 -0.9155007674675416
0.9313236990704798 -0.6896122346558667
0.9316614057349629 -0.4633545881391637
0.9318163079105424 -0.23664187659330038
0.9334671424520885 -0.006959812164670232
0.2883435084008954 -0.007935273698958559
0.2895804090538449 -0.23669660560935066
0.28968730677785604 -0.4633621246818016
0.28993944019472445 -0.6896486545446062
0.2903829921067689 -0.9155626003596239
0.2910264855460112 -1.1410646909189777
0.292068155890104 -1.3659494835833625
0.29393116922677426 -1.5897720177210324
0.29716167160067997 -1.8117962166317703
0.3023016124223438 -2.0309430734658984
0.3098040935418432 -2.245725692650004
0.32005211507739845 -2.454219193811214
0.3333870656807921 -2.65410788873749
0.3501496334686171 -2.842776822299537
0.3706911142379248 -3.0173375035304093
0.39534738830961247 -3.1746374485119366
0.4243807769245107 -3.311298165974484
0.4579194613234465 -3.4238063550756137
0.4958582584797772 -3.508695383972043
0.5377001270667454 -3.562772276328317
0.5824322195692903 -3.5834385081243374
0.6271643120718312 -3.562772276328196
0.6690061806587898 -3.508695383971799
0.7069449778151056 -3.423806355075263
0.7404836622140241 -3.3112981659740472
0.7695170508289029 -3.1746374485114406
0.79417332490057 -3.0173375035298684
0.8147148056698581 -2.8427768222989664
0.8314773734576631 -2.6541078887369074
0.8448123240610383 -2.4542191938106384
0.8550603455965772 -2.245725692649452
0.8625628267160625 -2.030943073465382
0.8677027675377149 -1.8117962166312966
0.8709332699116124 -1.589772017720609
0.8727962832482782 -1.3659494835829928
0.8738379535923687 -1.1410646909186672
0.8744814470316105 -0.9155626003593709
0.8749249989436548 -0.6896486545444127
0.8751771323605232 -0.463362124681666
0.8752840300845343 -0.23669660560927366
0.8765209307374805 -0.007935273698946838
0.3451499739691863 -0.008709151060543676
0.34605882959852396 -0.23674283473705154
0.3461344691210875 -0.463368937671189
0.3463137089281766 -0.6896737255739378
0.3466535244462946 -0.9156119198553428
0.3471634866222898 -1.141144631904653
0.34795447549179065 -1.3661146121747993
0.34935211126257565 -1.5901348770824155
0.35180758899387227 -1.8124972935692238
0.35579335555042324 -2.0321073606401083
0.36169925642417705 -2.247448960836315
0.3698212786715387 -2.456579825858146
0.38041794818142194 -2.6571795252583517
0.39375215879514835 -2.8466379789330944
0.41011020017823635 -3.022069587279386
0.4297826451394615 -3.1803154856208695
0.453022704151596 -3.3179763399411026
0.47999918172187445 -3.4315045473748724
0.5107608842974212 -3.5173766159065023
0.5451179145492894 -3.5722985504566154
0.5824322195692776 -3.59353936704834
0.6197465245892623 -3.5722985504564932
0.6541035548411226 -3.517376615906256
0.6848652574166567 -3.4315045473745176
0.711841734986921 -3.3179763399406625
0.7350817939990398 -3.1803154856203695
0.7547542389602482 -3.0220695872788412
0.7711122803433205 -2.84663797893252
0.7844464909570315 -2.6571795252577646
0.7950431604669002 -2.456579825857567
0.8031651827142486 -2.247448960835759
0.8090710835879912 -2.032107360639589
0.813056850144533 -1.812497293568748
0.8155123278758235 -1.5901348770819903
0.816909963646605 -1.3661146121744292
0.8177009525161045 -1.141144631904342
0.8182109146920992 -0.91561191985509
0.8185507302102172 -0.6896737255737442
0.8187299700173062 -0.4633689376710534
0.8188056095398696 -0.2367428347369744
0.8197144651692049 -0.008709151060530395
0.4018514570036632 -0.009312148680975138
0.4025003397750767 -0.2367826620835788
0.40255177139751935 -0.46337553982009133
0.40266529749015834 -0.6896887708164392
0.40290297146501697 -0.9156484247605458
0.40328277896856085 -1.1412042619930771
0.4038568711713895 -1.366225073419981
0.4048354187397119 -1.5903772604336661
0.4065719507126118 -1.8129864796950537
0.4094456954005883 -2.032954036778733
0.41377823140841574 -2.2487336823033273
0.4197951492439164 -2.458361271499396
0.4276777656433016 -2.65951183427142
0.43761079519005047 -2.8495813257977827
0.4498109163279839 -3.025690904572138
0.4645223282462254 -3.1846817993453986
0.4819810621067387 -3.3231422034058604
0.5023763414052179 -3.437507686456902
0.5258863696023593 -3.52423601187775
0.5526370062686913 -3.579971701807311
0.5824322195692644 -3.6018541265281923
0.612227432869835 -3.5799717018071875
0.6389780695361605 -3.5242360118775014
0.6624880977332925 -3.437507686456545
0.6828833770317608 -3.323142203405417
0.7003421108922614 -3.1846817993448946
0.7150535228104902 -3.0256909045715896
0.7272536439484122 -2.849581325797205
0.7371866734951501 -2.6595118342708304
0.7450692898945245 -2.4583612714988137
0.7510862077300151 -2.248733682302769
0.7554187437378342 -2.0329540367782117
0.7582924884258042 -1.8129864796945767
0.7600290203986999 -1.59037726043324
0.76100756796702 -1.3662250734196102
0.7615816601698477 -1.1412042619927665
0.7619614676733913 -0.9156484247602927
0.7621991416482499 -0.6896887708162456
0.7623126677408888 -0.4633755398199557
0.7623640993633314 -0.23678266208350152
0.7630129821347431 -0.00931214868096064
0.4584690083553881 -0.00977327058234101
0.4589207683299564 -0.23681792552202316
0.4589458667830938 -0.46338112674881776
0.45899731483844514 -0.6896948410907401
0.4591355532384509 -0.9156714373912377
0.45938184582282027 -1.1412463327702067
0.4597605616705146 -1.366295478481779
0.4603749191721037 -1.5905213126791249
0.4614572634194018 -1.813287116378853
0.46328478036262916 -2.0335007249362995
0.46609257223564726 -2.249592214574202
0.4700410510568917 -2.4595750139896038
0.47524355912940014 -2.6611169559484034
0.4818149175098592 -2.851619971448952
0.48989977097242215 -3.028213938647162
0.4996844424391917 -3.187746892143901
0.5113855862900466 -3.3268037597043367
0.5252143296036675 -3.441812634561086
0.5414037214927748 -3.5292481441950314
0.5603599819865064 -3.5857536301713133
0.5824322195692508 -3.6083578748315652
0.6045044571519936 -3.585753630171189
0.6234607176457209 -3.5292481441947814
0.6396501095348214 -3.4418126345607263
0.6534788528484345 -3.326803759703891
0.6651799966992809 -3.1877468921433945
0.674964668166042 -3.0282139386466107
0.6830495216285974 -2.851619971448372
0.6896208800090499 -2.6611169559478114
0.6948233880815516 -2.45957501398902
0.6987718669027894 -2.249592214573642
0.701579658775802 -2.033500724935777
0.7034071757190254 -1.813287116378375
0.704489519966321 -1.5905213126786983
0.7051038774679087 -1.366295478481408
0.7054825933156026 -1.141246332769896
0.7057288858999717 -0.9156714373909847
0.7058671242999777 -0.6896948410905466
0.7059185723553288 -0.46338112674868204
0.7059436708084663 -0.2368179255219459
0.7063954307830331 -0.009773270582325591
0.5150172455538752 -0.01012188852250099
0.5153288762288866 -0.2368510040323892
0.5153228727670299 -0.4633839611920533
0.5153138229120927 -0.6896927044331478
0.5153555909771069 -0.9156808550264255
0.5154652089465113 -1.1412701456739667
0.5156518538916343 -1.3663360629298313
0.515951677273306 -1.5905932274439532
0.5164574416714873 -1.8134326037773079
0.5173244174252082 -2.033778478476769
0.518682631365008 -2.250049643166649
0.5206225066676556 -2.4602421725199486
0.5231931139275026 -2.662014970129836
0.5264502757402159 -2.8527751237162353
0.5304720714490341 -3.0296599749631232
0.5353767333590232 -3.1895288331073126
0.5413454177492577 -3.328975691917803
0.5486231744494735 -3.4444313108958955
0.5574978367930219 -3.532393918168507
0.5684445592583272 -3.589583434716558
0.5824322195692367 -3.612997123379893
0.596419879880146 -3.589583434716433
0.6073666023454488 -3.532393918168256
0.6162412646889932 -3.4444313108955344
0.6235190213892046 -3.328975691917355
0.6294877057794349 -3.189528833106804
0.63439236768942 -3.029659974962571
0.6384141633982352 -2.852775123715654
0.6416713252109463 -2.6620149701292433
0.6442419324707901 -2.460242172519363
0.6461818077734347 -2.2500496431660872
0.6475400217132324 -2.033778478476245
0.6484069974669516 -1.8134326037768296
0.6489127618651318 -1.5905932274435266
0.6492125852468031 -1.3663360629294603
0.6493992301919259 -1.1412701456736556
0.6495088481613303 -0.9156808550261726
0.6495506162263445 -0.6896927044329543
0.6495415663714074 -0.4633839611919175
0.6495355629095505 -0.23685100403231193
0.6498471935845612 -0.010121888522484896
0.5715128905596628 -0.010383267628885428
0.5717259544998585 -0.23688451097391194
0.5716877988364216 -0.463382353998658
0.5716193392184156 -0.6896828625773824
0.5715671893722419 -0.9156768567330531
0.5715406465040207 -1.1412749103012538
0.5715305603792031 -1.3663488566814057
0.5715272946447395 -1.5906154897641143
0.5715263832459756 -1.8134718718295757
0.5715264366673425 -2.033849044495731
0.5715266210617269 -2.250166207176145
0.5715258452063808 -2.46041618226349
0.5715190237742559 -2.662256499283136
0.5715028129097205 -2.8530953974294104
0.5714871953013957 -3.030075986887489
0.5715265273083042 -3.1900701123724713
0.5717642590913974 -3.3296933703304394
0.5724837995247374 -3.445400696695526
0.574092936942612 -3.5337052106536375
0.5770458982269515 -3.591406479775115
0.5824322195692223 -3.6156839433997168
0.5878185409114937 -3.5914064797749896
0.5907715021958323 -3.5337052106533857
0.5923806396137059 -3.445400696695164
0.5931001800470456 -3.3296933703299922
0.5933379118301396 -3.1900701123719624
0.5933772438370486 -3.030075986886936
0.593361626228725 -2.853095397428829
0.5933454153641914 -2.6622564992825435
0.5933385939320676 -2.4604161822629034
0.5933378180767228 -2.2501662071755835
0.5933380024711081 -2.0338490444952075
0.5933380558924753 -1.8134718718290972
0.5933371444937118 -1.5906154897636877
0.5933338787592483 -1.366348856681035
0.5933237926344309 -1.1412749103009425
0.5932972497662098 -0.9156768567328001
0.593245099920036 -0.6896828625771889
0.5931766403020301 -0.4633823539985222
0.5931384846385931 -0.23688451097383473
0.5933515485787885 -0.010383267628868903
0.6279669671959066 -0.010581668408303048
0.6281120735256238 -0.2369181653248497
0.6280447261969766 -0.46337595907326307
0.6279187714062522 -0.6896654875108249
0.6277754424455824 -0.9156598628241894
0.6276149080382664 -1.1412604799332988
0.6274088537872483 -1.3663335015386004
0.6271024568406275 -1.5905926058849356
0.6265950227604191 -1.8134325137902632
0.625728399477682 -2.0337785074726247
0.6243709655536114 -2.2500496805743637
0.6224283495462661 -2.4602404607435826
0.6198433398201226 -2.6620095984440564
0.6165542808841957 -2.8527665208234487
0.6125044946470268 -3.0296606791625735
0.607683174119748 -3.189580715693365
0.6021831391606084 -3.329171912964753
0.5962677070702861 -3.4449310677134486
0.5903749461194566 -3.5333794170431227
0.5851415360669923 -3.591337581481853
0.5824322195692078 -3.616522322420947
0.5797229030714226 -3.591337581481728
0.5744894930189585 -3.533379417042871
0.5685967320681322 -3.444931067713087
0.5626812999778151 -3.329171912964306
0.5571812650186815 -3.189580715692857
0.5523599444914076 -3.0296606791620206
0.548310158254244 -2.8527665208228683
0.5450210993183227 -2.662009598443464
0.542436089592185 -2.460240460742997
0.540493473584845 -2.250049680573803
0.5391360396607785 -2.033778507472101
0.5382694163780442 -1.8134325137897849
0.5377619822978371 -1.590592605884509
0.5374555853512171 -1.3663335015382294
0.5372495311001996 -1.1412604799329877
0.5370889966928838 -0.9156598628239365
0.536945667732214 -0.6896654875106314
0.5368197129414897 -0.4633759590731272
0.5367523656128425 -0.23691816532477253
0.5368974719425595 -0.010581668408286296
0.6843924022407476 -0.010733680523930303
0.6844910736842532 -0.23695000555113188
0.684397585114565 -0.4633651915626083
0.6842172357879761 -0.6896407862998902
0.6839861812046153 -0.9156304822503798
0.6836950391403382 -1.141227283900432
0.6832979810149273 -1.366290304736919
0.6826775315426554 -1.590519932001875
0.6815945099891539 -1.8132869863028402
0.6797683188813612 -2.0335009638525303
0.6769608128432225 -2.249591964878374
0.6730087571975637 -2.45957126544954
0.6677933792852113 -2.6611059385356604
0.6611951321444525 -2.8516028971183616
0.653089011875783 -3.0282163814968457
0.6433883370211626 -3.1878531001877004
0.6321288872259191 -3.3271956040883888
0.6195438822545586 -3.4427908418531885
0.606133237547433 -3.531216223232472
0.5930040072113381 -3.589486588853266
0.5824322195691936 -3.6156836067163494
0.5718604319270492 -3.5894865888531413