# vtk DataFile Version 3.0
Some data
ASCII
DATASET UNSTRUCTURED_GRID
POINTS 861 float
0.0 0.0 0.0
0.4 0.0 0.0
0.8 0.0 0.0
1.2000000000000002 0.0 0.0
1.6 0.0 0.0
2.0 0.0 0.0
2.4000000000000004 0.0 0.0
2.8000000000000003 0.0 0.0
3.2 0.0 0.0
3.6 0.0 0.0
4.0 0.0 0.0
4.4 0.0 0.0
4.800000000000001 0.0 0.0
5.2 0.0 0.0
5.6000000000000005 0.0 0.0
6.0 0.0 0.0
6.4 0.0 0.0
6.800000000000001 0.0 0.0
7.2 0.0 0.0
7.6000000000000005 0.0 0.0
8.0 0.0 0.0
8.4 0.0 0.0
8.8 0.0 0.0
9.200000000000001 0.0 0.0
9.600000000000001 0.0 0.0
10.0 0.0 0.0
10.4 0.0 0.0
10.8 0.0 0.0
11.200000000000001 0.0 0.0
11.600000000000001 0.0 0.0
12.0 0.0 0.0
12.4 0.0 0.0
12.8 0.0 0.0
13.200000000000001 0.0 0.0
13.600000000000001 0.0 0.0
14.0 0.0 0.0
14.4 0.0 0.0
14.8 0.0 0.0
15.200000000000001 0.0 0.0
15.600000000000001 0.0 0.0
16.0 0.0 0.0
0.0 0.1 0.0
0.4 0.1 0.0
0.8 0.1 0.0
1.2000000000000002 0.1 0.0
1.6 0.1 0.0
2.0 0.1 0.0
2.4000000000000004 0.1 0.0
2.8000000000000003 0.1 0.0
3.2 0.1 0.0
3.6 0.1 0.0
4.0 0.1 0.0
4.4 0.1 0.0
4.800000000000001 0.1 0.0
5.2 0.1 0.0
5.6000000000000005 0.1 0.0
6.0 0.1 0.0
6.4 0.1 0.0
6.800000000000001 0.1 0.0
7.2 0.1 0.0
7.6000000000000005 0.1 0.0
8.0 0.1 0.0
8.4 0.1 0.0
8.8 0.1 0.0
9.200000000000001 0.1 0.0
9.600000000000001 0.1 0.0
10.0 0.1 0.0
10.4 0.1 0.0
10.8 0.1 0.0
11.200000000000001 0.1 0.0
11.600000000000001 0.1 0.0
12.0 0.1 0.0
12.4 0.1 0.0
12.8 0.1 0.0
13.200000000000001 0.1 0.0
13.600000000000001 0.1 0.0
14.0 0.1 0.0
14.4 0.1 0.0
14.8 0.1 0.0
15.200000000000001 0.1 0.0
15.600000000000001 0.1 0.0
16.0 0.1 0.0
0.0 0.2 0.0
0.4 0.2 0.0
0.8 0.2 0.0
1.2000000000000002 0.2 0.0
1.6 0.2 0.0
2.0 0.2 0.0
2.4000000000000004 0.2 0.0
2.8000000000000003 0.2 0.0
3.2 0.2 0.0
3.6 0.2 0.0
4.0 0.2 0.0
4.4 0.2 0.0
4.800000000000001 0.2 0.0
5.2 0.2 0.0
5.6000000000000005 0.2 0.0
6.0 0.2 0.0
6.4 0.2 0.0
6.800000000000001 0.2 0.0
7.2 0.2 0.0
7.6000000000000005 0.2 0.0
8.0 0.2 0.0
8.4 0.2 0.0
8.8 0.2 0.0
9.200000000000001 0.2 0.0
9.600000000000001 0.2 0.0
10.0 0.2 0.0
10.4 0.2 0.0
10.8 0.2 0.0
11.200000000000001 0.2 0.0
11.600000000000001 0.2 0.0
12.0 0.2 0.0
12.4 0.2 0.0
12.8 0.2 0.0
13.200000000000001 0.2 0.0
13.600000000000001 0.2 0.0
14.0 0.2 0.0
14.4 0.2 0.0
14.8 0.2 0.0
15.200000000000001 0.2 0.0
15.600000000000001 0.2 0.0
16.0 0.2 0.0
0.0 0.30000000000000004 0.0
0.4 0.30000000000000004 0.0
0.8 0.30000000000000004 0.0
1.2000000000000002 0.30000000000000004 0.0
1.6 0.30000000000000004 0.0
2.0 0.30000000000000004 0.0
2.4000000000000004 0.30000000000000004 0.0
2.8000000000000003 0.30000000000000004 0.0
3.2 0.30000000000000004 0.0
3.6 0.30000000000000004 0.0
4.0 0.30000000000000004 0.0
4.4 0.30000000000000004 0.0
4.800000000000001 0.30000000000000004 0.0
5.2 0.30000000000000004 0.0
5.6000000000000005 0.30000000000000004 0.0
6.0 0.30000000000000004 0.0
6.4 0.30000000000000004 0.0
6.800000000000001 0.30000000000000004 0.0
7.2 0.30000000000000004 0.0
7.6000000000000005 0.30000000000000004 0.0
8.0 0.30000000000000004 0.0
8.4 0.30000000000000004 0.0
8.8 0.30000000000000004 0.0
9.200000000000001 0.30000000000000004 0.0
9.600000000000001 0.30000000000000004 0.0
10.0 0.30000000000000004 0.0
10.4 0.30000000000000004 0.0
10.8 0.30000000000000004 0.0
11.200000000000001 0.30000000000000004 0.0
11.600000000000001 0.30000000000000004 0.0
12.0 0.30000000000000004 0.0
12.4 0.30000000000000004 0.0
12.8 0.30000000000000004 0.0
13.200000000000001 0.30000000000000004 0.0
13.600000000000001 0.30000000000000004 0.0
14.0 0.30000000000000004 0.0
14.4 0.30000000000000004 0.0
14.8 0.30000000000000004 0.0
15.200000000000001 0.30000000000000004 0.0
15.600000000000001 0.30000000000000004 0.0
16.0 0.30000000000000004 0.0
0.0 0.4 0.0
0.4 0.4 0.0
0.8 0.4 0.0
1.2000000000000002 0.4 0.0
1.6 0.4 0.0
2.0 0.4 0.0
2.4000000000000004 0.4 0.0
2.8000000000000003 0.4 0.0
3.2 0.4 0.0
3.6 0.4 0.0
4.0 0.4 0.0
4.4 0.4 0.0
4.800000000000001 0.4 0.0
5.2 0.4 0.0
5.6000000000000005 0.4 0.0
6.0 0.4 0.0
6.4 0.4 0.0
6.800000000000001 0.4 0.0
7.2 0.4 0.0
7.6000000000000005 0.4 0.0
8.0 0.4 0.0
8.4 0.4 0.0
8.8 0.4 0.0
9.200000000000001 0.4 0.0
9.600000000000001 0.4 0.0
10.0 0.4 0.0
10.4 0.4 0.0
10.8 0.4 0.0
11.200000000000001 0.4 0.0
11.600000000000001 0.4 0.0
12.0 0.4 0.0
12.4 0.4 0.0
12.8 0.4 0.0
13.200000000000001 0.4 0.0
13.600000000000001 0.4 0.0
14.0 0.4 0.0
14.4 0.4 0.0
14.8 0.4 0.0
15.200000000000001 0.4 0.0
15.600000000000001 0.4 0.0
16.0 0.4 0.0
0.0 0.5 0.0
0.4 0.5 0.0
0.8 0.5 0.0
1.2000000000000002 0.5 0.0
1.6 0.5 0.0
2.0 0.5 0.0
2.4000000000000004 0.5 0.0
2.8000000000000003 0.5 0.0
3.2 0.5 0.0
3.6 0.5 0.0
4.0 0.5 0.0
4.4 0.5 0.0
4.800000000000001 0.5 0.0
5.2 0.5 0.0
5.6000000000000005 0.5 0.0
6.0 0.5 0.0
6.4 0.5 0.0
6.800000000000001 0.5 0.0
7.2 0.5 0.0
7.6000000000000005 0.5 0.0
8.0 0.5 0.0
8.4 0.5 0.0
8.8 0.5 0.0
9.200000000000001 0.5 0.0
9.600000000000001 0.5 0.0
10.0 0.5 0.0
10.4 0.5 0.0
10.8 0.5 0.0
11.200000000000001 0.5 0.0
11.600000000000001 0.5 0.0
12.0 0.5 0.0
12.4 0.5 0.0
12.8 0.5 0.0
13.200000000000001 0.5 0.0
13.600000000000001 0.5 0.0
14.0 0.5 0.0
14.4 0.5 0.0
14.8 0.5 0.0
15.200000000000001 0.5 0.0
15.600000000000001 0.5 0.0
16.0 0.5 0.0
0.0 0.6000000000000001 0.0
0.4 0.6000000000000001 0.0
0.8 0.6000000000000001 0.0
1.2000000000000002 0.6000000000000001 0.0
1.6 0.6000000000000001 0.0
2.0 0.6000000000000001 0.0
2.4000000000000004 0.6000000000000001 0.0
2.8000000000000003 0.6000000000000001 0.0
3.2 0.6000000000000001 0.0
3.6 0.6000000000000001 0.0
4.0 0.6000000000000001 0.0
4.4 0.6000000000000001 0.0
4.800000000000001 0.6000000000000001 0.0
5.2 0.6000000000000001 0.0
5.6000000000000005 0.6000000000000001 0.0
6.0 0.6000000000000001 0.0
6.4 0.6000000000000001 0.0
6.800000000000001 0.6000000000000001 0.0
7.2 0.6000000000000001 0.0
7.6000000000000005 0.6000000000000001 0.0
8.0 0.6000000000000001 0.0
8.4 0.6000000000000001 0.0
8.8 0.6000000000000001 0.0
9.200000000000001 0.6000000000000001 0.0
9.600000000000001 0.6000000000000001 0.0
10.0 0.6000000000000001 0.0
10.4 0.6000000000000001 0.0
10.8 0.6000000000000001 0.0
11.200000000000001 0.6000000000000001 0.0
11.600000000000001 0.6000000000000001 0.0
12.0 0.6000000000000001 0.0
12.4 0.6000000000000001 0.0
12.8 0.6000000000000001 0.0
13.200000000000001 0.6000000000000001 0.0
13.600000000000001 0.6000000000000001 0.0
14.0 0.6000000000000001 0.0
14.4 0.6000000000000001 0.0
14.8 0.6000000000000001 0.0
15.200000000000001 0.6000000000000001 0.0
15.600000000000001 0.6000000000000001 0.0
16.0 0.6000000000000001 0.0
0.0 0.7000000000000001 0.0
0.4 0.7000000000000001 0.0
0.8 0.7000000000000001 0.0
1.2000000000000002 0.7000000000000001 0.0
1.6 0.7000000000000001 0.0
2.0 0.7000000000000001 0.0
2.4000000000000004 0.7000000000000001 0.0
2.8000000000000003 0.7000000000000001 0.0
3.2 0.7000000000000001 0.0
3.6 0.7000000000000001 0.0
4.0 0.7000000000000001 0.0
4.4 0.7000000000000001 0.0
4.800000000000001 0.7000000000000001 0.0
5.2 0.7000000000000001 0.0
5.6000000000000005 0.7000000000000001 0.0
6.0 0.7000000000000001 0.0
6.4 0.7000000000000001 0.0
6.800000000000001 0.7000000000000001 0.0
7.2 0.7000000000000001 0.0
7.6000000000000005 0.7000000000000001 0.0
8.0 0.7000000000000001 0.0
8.4 0.7000000000000001 0.0
8.8 0.7000000000000001 0.0
9.200000000000001 0.7000000000000001 0.0
9.600000000000001 0.7000000000000001 0.0
10.0 0.7000000000000001 0.0
10.4 0.7000000000000001 0.0
10.8 0.7000000000000001 0.0
11.200000000000001 0.7000000000000001 0.0
11.600000000000001 0.7000000000000001 0.0
12.0 0.7000000000000001 0.0
12.4 0.7000000000000001 0.0
12.8 0.7000000000000001 0.0
13.200000000000001 0.7000000000000001 0.0
13.600000000000001 0.7000000000000001 0.0
14.0 0.7000000000000001 0.0
14.4 0.7000000000000001 0.0
14.8 0.7000000000000001 0.0
15.200000000000001 0.7000000000000001 0.0
15.600000000000001 0.7000000000000001 0.0
16.0 0.7000000000000001 0.0
0.0 0.8 0.0
0.4 0.8 0.0
0.8 0.8 0.0
1.2000000000000002 0.8 0.0
1.6 0.8 0.0
2.0 0.8 0.0
2.4000000000000004 0.8 0.0
2.8000000000000003 0.8 0.0
3.2 0.8 0.0
3.6 0.8 0.0
4.0 0.8 0.0
4.4 0.8 0.0
4.800000000000001 0.8 0.0
5.2 0.8 0.0
5.6000000000000005 0.8 0.0
6.0 0.8 0.0
6.4 0.8 0.0
6.800000000000001 0.8 0.0
7.2 0.8 0.0
7.6000000000000005 0.8 0.0
8.0 0.8 0.0
8.4 0.8 0.0
8.8 0.8 0.0
9.200000000000001 0.8 0.0
9.600000000000001 0.8 0.0
10.0 0.8 0.0
10.4 0.8 0.0
10.8 0.8 0.0
11.200000000000001 0.8 0.0
11.600000000000001 0.8 0.0
12.0 0.8 0.0
12.4 0.8 0.0
12.8 0.8 0.0
13.200000000000001 0.8 0.0
13.600000000000001 0.8 0.0
14.0 0.8 0.0
14.4 0.8 0.0
14.8 0.8 0.0
15.200000000000001 0.8 0.0
15.600000000000001 0.8 0.0
16.0 0.8 0.0
0.0 0.9 0.0
0.4 0.9 0.0
0.8 0.9 0.0
1.2000000000000002 0.9 0.0
1.6 0.9 0.0
2.0 0.9 0.0
2.4000000000000004 0.9 0.0
2.8000000000000003 0.9 0.0
3.2 0.9 0.0
3.6 0.9 0.0
4.0 0.9 0.0
4.4 0.9 0.0
4.800000000000001 0.9 0.0
5.2 0.9 0.0
5.6000000000000005 0.9 0.0
6.0 0.9 0.0
6.4 0.9 0.0
6.800000000000001 0.9 0.0
7.2 0.9 0.0
7.6000000000000005 0.9 0.0
8.0 0.9 0.0
8.4 0.9 0.0
8.8 0.9 0.0
9.200000000000001 0.9 0.0
9.600000000000001 0.9 0.0
10.0 0.9 0.0
10.4 0.9 0.0
10.8 0.9 0.0
11.200000000000001 0.9 0.0
11.600000000000001 0.9 0.0
12.0 0.9 0.0
12.4 0.9 0.0
12.8 0.9 0.0
13.200000000000001 0.9 0.0
13.600000000000001 0.9 0.0
14.0 0.9 0.0
14.4 0.9 0.0
14.8 0.9 0.0
15.200000000000001 0.9 0.0
15.600000000000001 0.9 0.0
16.0 0.9 0.0
0.0 1.0 0.0
0.4 1.0 0.0
0.8 1.0 0.0
1.2000000000000002 1.0 0.0
1.6 1.0 0.0
2.0 1.0 0.0
2.4000000000000004 1.0 0.0
2.8000000000000003 1.0 0.0
3.2 1.0 0.0
3.6 1.0 0.0
4.0 1.0 0.0
4.4 1.0 0.0
4.800000000000001 1.0 0.0
5.2 1.0 0.0
5.6000000000000005 1.0 0.0
6.0 1.0 0.0
6.4 1.0 0.0
6.800000000000001 1.0 0.0
7.2 1.0 0.0
7.6000000000000005 1.0 0.0
8.0 1.0 0.0
8.4 1.0 0.0
8.8 1.0 0.0
9.200000000000001 1.0 0.0
9.600000000000001 1.0 0.0
10.0 1.0 0.0
10.4 1.0 0.0
10.8 1.0 0.0
11.200000000000001 1.0 0.0
11.600000000000001 1.0 0.0
12.0 1.0 0.0
12.4 1.0 0.0
12.8 1.0 0.0
13.200000000000001 1.0 0.0
13.600000000000001 1.0 0.0
14.0 1.0 0.0
14.4 1.0 0.0
14.8 1.0 0.0
15.200000000000001 1.0 0.0
15.600000000000001 1.0 0.0
16.0 1.0 0.0
0.0 1.1 0.0
0.4 1.1 0.0
0.8 1.1 0.0
1.2000000000000002 1.1 0.0
1.6 1.1 0.0
[...]
POINT_DATA 861
SCALARS Disp float 2
LOOKUP_TABLE default
0.0 0.0
0.006432645644852763 -0.31774819058963993
0.007928289448424589 -0.6253996194532867
0.008749658534502497 -0.9318250336045575
0.009861702913818882 -1.2378237423436587
0.011793464096261504 -1.5428790890691095
0.015346675814999773 -1.846293369209333
0.021524789106761737 -2.1471852765837647
0.0315135518064201 -2.444442619012161
0.04660040793809364 -2.7365940403800506
0.06805416841193053 -3.021642027171628
0.09704072996200898 -3.2969890312507792
0.1345852821808241 -3.5595000053247707
0.18156013186729503 -3.805648484038938
0.23867198798930017 -4.031615323184748
0.3063880872640404 -4.2333777148048854
0.38481392185295293 -4.4068309269826695
0.4735567667065178 -4.547976511323834
0.5716189311682955 -4.653200059863838
0.6773658078863377 -4.719529494051927
0.7882231892388539 -4.745001667364897
0.8990805705913648 -4.719529494051778
1.0048274473093846 -4.653200059863536
1.1028896117711238 -4.547976511323395
1.1916324566246403 -4.4068309269821215
1.2700582912135001 -4.233377714804258
1.3377743904881856 -4.0316153231840595
1.3948862466101364 -3.805648484038208
1.4418610962965523 -3.559500005324023
1.4794056485153158 -3.296989031250037
1.508392210065348 -3.0216420271709117
1.5298459705391465 -2.736594040379378
1.54493282667079 -2.4444426190115403
1.5549215893704271 -2.147185276583206
1.5610997026621745 -1.8462933692088408
1.5646529143809036 -1.5428790890686934
1.566584675563342 -1.237823742343318
1.5676967199426568 -0.9318250336042971
1.5685180890287342 -0.6253996194531056
1.570013732832305 -0.3177481905895413
1.5764463784771543 0.0
0.07925441909028431 -0.002635468517852969
0.08381806471121188 -0.3180762347690419
0.08458487380563313 -0.6254648123178633
0.08530674835749305 -0.9319207500835015
0.08627104181722996 -1.2379986948199553
0.08789956053809589 -1.5432913692298167
0.09094655456056845 -1.847168256175982
0.09635900068804572 -2.1487927538463154
0.10524771031101841 -2.447084350006171
0.1187851646479154 -2.740576379855594
0.1381026260921788 -3.0272525599160507
0.16422643544397628 -3.3044851025714177
0.1980657475110818 -3.5691063921921
0.24041172008504327 -3.817555147185593
0.2919079572135763 -4.045967889339487
0.3529909762349435 -4.250253997446445
0.42378420488836244 -4.426208900868213
0.5039764925273132 -4.569703533532378
0.5927081561850559 -4.676967854452829
0.6883905843580405 -4.744841893856887
0.7882231892388358 -4.770957499294208
0.8880557941196253 -4.7448418938567345
0.9837382222925893 -4.676967854452519
1.072469885950298 -4.569703533531929
1.1526621735892073 -4.4262089008676515
1.2234554022425788 -4.250253997445805
1.2845384212638968 -4.045967889338785
1.3360346583923808 -3.81755514718485
1.3783806309662925 -3.5691063921913395
1.412219943033352 -3.3044851025706645
1.4383437523851075 -3.0272525599153246
1.4576612138293363 -2.740576379854913
1.4711986681662061 -2.447084350005544
1.4800873777891592 -2.1487927538457523
1.4854998239166233 -1.8471682561754872
1.4885468179390882 -1.543291369229399
1.4901753366599502 -1.2379986948196144
1.4911396301196864 -0.931920750083241
1.4918615046715462 -0.6254648123176821
1.4926283137659673 -0.31807623476894287
1.497191959386889 -0.0026354685178504433
0.1574468982575487 -0.004744835773833808
0.16082650043156316 -0.31824227930420523
0.16126091541620907 -0.6254951294933523
0.161847177236358 -0.9320041951409939
0.1626757639021251 -1.2381355052429308
0.1640315049645973 -1.5436178077828633
0.1665863413912883 -1.8478960368704904
0.17123594567922654 -2.1501774480947256
0.1790037526178669 -2.4494047283080866
0.19095068220833622 -2.7441079410238984
0.20807766533756777 -3.0322489284724683
0.23128211261745624 -3.31117186569809
0.261358618479883 -3.5776830558934356
0.29900673641420755 -3.828193755353846
0.34481179036962095 -4.058802147486541
0.3991842528317717 -4.265360348653244
0.46227906975785327 -4.44357936651005
0.5338810218012797 -4.58921406705387
0.6132444481737566 -4.698340054345516
0.6988388647822531 -4.767562484427091
0.7882231892388181 -4.7942494616080396
0.8776075136953774 -4.767562484426935
0.9632019303038549 -4.6983400543451985
1.0425653566763022 -4.589214067053413
1.1141673087196926 -4.4435793665094785
1.1772621256457318 -4.2653603486525915
1.2316345881078394 -4.058802147485828
1.2774396420632084 -3.828193755353092
1.3150877599974888 -3.5776830558926638
1.345164265859875 -3.311171865697326
1.3683687131397262 -3.0322489284717333
1.3854956962689269 -2.7441079410232105
1.3974426258593722 -2.4494047283074543
1.4052104327979944 -2.150177448094159
1.4098600370859213 -1.847896036869993
1.4124148735126054 -1.5436178077824445
1.413770614575075 -1.2381355052425893
1.4145992012408415 -0.9320041951407336
1.4151854630609904 -0.6254951294931712
1.4156198780456364 -0.31824227930410576
1.4189994802196448 -0.004744835773828412
0.23507472840097254 -0.006448417120863393
0.23765080701856764 -0.3183552980445708
0.23791392700020408 -0.6255112614501839
0.23837136201201922 -0.9320701552364867
0.23907147256733893 -1.2382437225103848
0.2401864003762007 -1.5438679146031486
0.24227742432793875 -1.8484815967464934
0.24617389584574914 -2.151339946780939
0.2528133272505113 -2.4513988615229407
0.2631462434632457 -2.7471801187671816
0.27804869835223406 -3.036620517415484
0.29829362794662134 -3.3170384608183787
0.3245651512388189 -3.585218322080291
0.3574704299029287 -3.8375500361164057
0.39752778445359394 -4.070102202896321
0.44512874673464736 -4.2786811568240495
0.5004639143711707 -4.4589290885674835
0.5634105621913982 -4.606497551103405
0.6333509336356619 -4.717305793120898
0.7089742452281623 -4.787753254491465
0.7882231892388007 -4.815016792543133
0.8674721332494337 -4.787753254491306
0.9430954448419173 -4.717305793120576
1.0130358162861555 -4.6064975511029385
1.0759824641063507 -4.4589290885669035
1.1313176317428377 -4.278681156823386
1.1789185940238531 -4.070102202895598
1.2189759485744789 -3.837550036115641
1.2518812272385507 -3.58521832207951
1.2781527505307124 -3.3170384608176064
1.2983976801250674 -3.0366205174147414
1.3133001350140288 -2.7471801187664875
1.3236330512267418 -2.4513988615223035
1.330272482631488 -2.151339946780369
1.3341689541492885 -1.8484815967459942
1.3362599781010214 -1.543867914602729
1.337374905909881 -1.2382437225100433
1.3380750164652002 -0.9320701552362266
1.3385324514770156 -0.6255112614500028
1.3387955714586521 -0.31835529804447094
1.3413716500762418 -0.006448417120855323
0.31238215780907325 -0.00783090182667075
0.31435223268926216 -0.3184422358119524
0.3145231148282365 -0.6255203977661099
0.3148731257527856 -0.9321207698817673
0.3154540985102394 -1.2383291790367434
0.31635697369136223 -1.5440550832406241
0.318027882212914 -1.8489341465473181
0.3211897634985226 -2.1522834163366578
0.3267083743260626 -2.4530663025091584
0.3354207449041245 -2.7497890540981706
0.34808300571089396 -3.0403617789090647
0.3653477069632073 -3.3220780658023594
0.38778800631395804 -3.5917046939396147
0.4159210607450641 -3.845615744986368
0.45020208844090404 -4.079857769428708
0.4909906288763554 -4.2902039943813275
0.5385064051003983 -4.472243148644606
0.5927232836761193 -4.621537341744815
0.6532024360678075 -4.7338683464068305
0.7189229111109616 -4.8054612069907385
0.7882231892387839 -4.833333725240694
0.8575234673666006 -4.805461206990577
0.9232439424097398 -4.733868346406503
0.9837230948014054 -4.621537341744341
1.037939973377099 -4.472243148644018
1.0854557496011106 -4.290203994380656
1.1262442900365288 -4.079857769427975
1.1605253177323354 -3.845615744985595
1.1886583721634087 -3.5917046939388246
1.2110986715141285 -3.322078065801579
1.2283633727664147 -3.0403617789083164
1.241025633573161 -2.7497890540974708
1.2497380041512043 -2.453066302508517
1.255256614978731 -2.152283416336085
1.2584184962643312 -1.8489341465468174
1.260089404785879 -1.5440550832402038
1.2609922799670004 -1.238329179036402
1.261573252724454 -0.9321207698815072
1.2619232636490032 -0.625520397765929
1.2620941457879775 -0.31844223581185216
1.264064220668162 -0.007830901826660281
0.38947895282740064 -0.008946341599207862
0.3909685699132009 -0.31851198368919603
0.39108634471631326 -0.6255272133146457
0.39134870161472707 -0.93215832178583
0.3918174746155816 -1.2383967114622434
0.3925371488631256 -1.544192224783124
0.3938317494851283 -1.849268467662969
0.39630670450031913 -2.1530149794781326
0.40072075974649635 -2.4544104002604743
0.4078226861918552 -2.751935720378701
0.41824716436144294 -3.043471819553988
0.4325287222970437 -3.326288840423205
0.4511322108701925 -3.597139356751021
0.47448386976041634 -3.852387359892963
0.5029738051379212 -4.088064829004784
0.5369325514131369 -4.299921129135451
0.5765877782560208 -4.4835069156776015
0.622004080971209 -4.634317428120948
0.6729624456947293 -4.748025991693291
0.7287848471421121 -4.820710869486394
0.7882231892387666 -4.8492443837020796
0.8476615313354166 -4.820710869486229
0.9034839327827867 -4.748025991692959
0.9544422975062876 -4.634317428120468
0.9998586002214525 -4.483506915677007
1.0395138270643098 -4.299921129134772
1.0734725733394976 -4.088064829004044
1.1019625087169749 -3.8523873598921825
1.1253141676071716 -3.597139356750224
1.1439176561802946 -3.3262888404224182
1.1581992141158732 -3.0434718195532344
1.1686236922854414 -2.7519357203779964
1.1757256187307847 -2.45441040025983
1.1801396739769512 -2.1530149794775566
1.1826146289921353 -1.849268467662467
1.183909229614135 -1.5441922247827036
1.1846289038616782 -1.238396711461902
1.1850976768625325 -0.9321583217855699
1.1853600337609465 -0.625527213314465
1.1854778085640587 -0.31851198368909556
1.1869674256498552 -0.008946341599195391
0.46642166745164715 -0.009836009922747638
0.46752531732356833 -0.3185681986608161
0.4676093423510943 -0.625534039445417
0.4677978565154613 -0.9321844430307725
0.46815839526164504 -1.238449526930478
0.4687180557165395 -1.5442911572639164
0.4696806994411127 -1.849502802235012
0.47152587721935063 -2.1535505118329703
0.47488508191460593 -2.455439044797477
0.48040108183807667 -2.75362562264442
0.4886081347399876 -3.045954843741628
0.4999227783730718 -3.3296739849913477
0.5147024384373633 -3.6015248634660746
0.5332834342848568 -3.857866797672664
0.5559909590324895 -4.09472400559198
0.5831177166558585 -4.307830440623234
0.6148926892917954 -4.492711006457303
0.6514546676484165 -4.644821302254847
0.6928055792570295 -4.759765608879226
0.7386577880213168 -4.833504763038683
0.7882231892387491 -4.862768424293047
0.8377885904561784 -4.833504763038516
0.8836407992204545 -4.759765608878889
0.9249917108290514 -4.644821302254362
0.9615536891856532 -4.492711006456703
0.9933286618215689 -4.307830440622549
1.0204554194449156 -4.094724005591233
1.0431629441925259 -3.857866797671877
1.0617439400399982 -3.6015248634652712
1.0765236001042693 -3.329673984990556
1.0878382437373357 -3.0459548437408697
1.096045296639231 -2.7536256226437112
1.1015612965626895 -2.4554390447968295
1.1049205012579364 -2.1535505118323925
1.1067656790361695 -1.8495028022345092
1.1077283227607406 -1.5442911572634959
1.1082879832156347 -1.2384495269301365
1.1086485219618183 -0.9321844430305125
1.1088370361261852 -0.6255340394452362
1.108921061153711 -0.3185681986607154
1.1100247110256296 -0.009836009922733483
0.5432474204572404 -0.010533368151853063
0.5440413650515441 -0.31861360084194895
0.5441004022858705 -0.625541354961878
0.544222762684074 -0.9322003754881847
0.5444768054691085 -1.238488746885994
0.5448896097049675 -1.5443615603417973
0.5455687976433838 -1.8496562455758814
0.5468458718834524 -2.1539119738327317
0.5492204378604623 -2.4561693383772636
0.5532073873754287 -2.754869873679049
0.5592347959288154 -3.0478201184389975
0.5676157226883689 -3.3322421492826044
0.5786057661613973 -3.6048696894509495
0.5924484448847136 -3.8620617258575796
0.6093985679108416 -4.099841741230335
0.6297134035767652 -4.313935884865484
0.6536164909288914 -4.499852951245172
0.6812877124473478 -4.653033920530683
0.7129230284975002 -4.769061538470576
0.748651136620821 -4.843821461241876
0.7882231892387312 -4.873901102888606
0.8277952418566397 -4.843821461241707
0.8635233499799514 -4.769061538470237
0.8951586660300918 -4.653033920530195
0.9228298875485331 -4.499852951244567
0.9467329749006428 -4.313935884864795
0.9670478105665491 -4.099841741229584
0.9839979335926606 -3.8620617258567878
0.9978406123159619 -3.6048696894501417
1.0088306557889755 -3.3322421492818086
1.0172115825485153 -3.0478201184382354
1.0232389911018904 -2.7548698736783375
1.0272259406168478 -2.4561693383766148
1.029600506593852 -2.1539119738321526
1.0308775808339172 -1.8496562455753782
1.0315567687723324 -1.544361560341377
1.031969573008191 -1.2384887468856525
1.0322236157932254 -0.9322003754879247
1.0323459761914286 -0.6255413549616973
1.0324050134257552 -0.3186136008418482
1.033198958020057 -0.010533368151837577
0.6199795186150203 -0.011069488883070775
0.6205338803233862 -0.31865069488823344
0.6205671561528177 -0.6255483153981446
0.6206270094960432 -0.9322070621527586
0.6207762965290942 -1.2385139803402607
0.6210449384035919 -1.5444095324029044
0.6214794724168726 -1.8497494037399398
0.6222628652654106 -2.1541270686501846
0.6237373403582749 -2.4566279023636506
0.62627986426975 -2.7556894480041034
0.6301963330362281 -3.0490838515112366
0.6356997351000898 -3.334008509535498
0.6429518427605223 -3.6071890570791902
0.6521090998362905 -3.8649869203924943
0.6633504108134877 -4.103430608544274
0.6768868458069963 -4.318247959998659
0.6929454187400654 -4.5049404314339005
0.7117384672184192 -4.658946648407387
0.733550049473167 -4.775877077811449
0.7589036595775324 -4.851611915838986
0.7882231892387129 -4.882610048281675
0.817542718899892 -4.8516119158388165
0.8428963290042519 -4.775877077811107
0.864707911258991 -4.6589466484068955
0.8835009597373339 -4.504940431433291
0.8995595326703913 -4.318247959997965
0.913095967663889 -4.103430608543519
0.9243372786410757 -3.8649869203916998
0.9334945357168347 -3.6071890570783802
0.9407466433772578 -3.3340085095346987
0.9462500454411104 -3.0490838515104723
0.9501665142075812 -2.75568944800339
0.9527090381190509 -2.4566279023629995
0.9541835132119115 -2.1541270686496046
0.9549669060604477 -1.8497494037394364
0.9554014400737277 -1.5444095324024838
0.9556700819482252 -1.2385139803399194
0.9558193689812761 -0.9322070621524987
0.9558792223245016 -0.6255483153979637
0.955912498153933 -0.3186506948881327
0.9564668598622974 -0.011069488883054245
0.6966354215255697 -0.01147489337750613
0.6970141885874632 -0.31868254253602246
0.6970168679958824 -0.6255530319626447
0.6970146677443667 -0.9322052253594749
0.6970619742398245 -1.2385247209781938
0.6971827922348368 -1.5444368599350238
0.6973947760281273 -1.8497995080187468
0.6977606564677995 -2.1542306045728683
0.6984384670993089 -2.4568540719343686
0.6996459691356867 -2.7561192558837315
0.701550077107477 -3.04977530650268
0.704260295271598 -3.3349988863239846
0.7078464984268392 -3.6085076530723086
0.712386849817813 -3.8666672169768037
0.7179860467435011 -4.105513498731374
0.7247948922866425 -4.3207847456561534
0.7330323162866228 -4.507990019617309
0.742978644296762 -4.66257090081581
0.7549599261520252 -4.780179351497372
0.7696271426888138 -4.856793367840997
0.7882231892386938 -4.888823951350365
0.8068192357885742 -4.856793367840827
0.8214864523253599 -4.780179351497028
0.8334677341806178 -4.662570900815316
0.8434140621907508 -4.507990019616697
0.8516514861907256 -4.320784745655459
0.8584603317338622 -4.105513498730616
0.8640595286595458 -3.8666672169760083
0.8685998800505159 -3.6085076530714972
0.8721860832057531 -3.334998886323184
0.8748963013698701 -3.0497753065019144
0.8768004093416573 -2.756119255883018
0.8780079113780328 -2.456854071933717
0.8786857220095406 -2.1542306045722883
0.8790516024492123 -1.8497995080182432
0.8792635862425026 -1.544436859934603
0.879384404237515 -1.2385247209778523
0.8794317107329725 -0.9322052253592148
0.8794295104814569 -0.6255530319624638
0.8794321898898759 -0.3186825425359217
0.8798109569517685 -0.011474893377488844
0.7732337404927506 -0.011776329547991468
0.7734877188360159 -0.31871262426439606
0.7734548664250778 -0.6255533390197122
0.7733905525852441 -0.9321952770611283
0.7733383195721476 -1.2385209570152795
0.7733112008126292 -1.5444428842172007
0.7733001865294141 -1.8498150410541037
0.7732956889864371 -2.154259897871689
0.7732937518042895 -2.4569112222467155
0.7732933178393849 -2.7562271224060284
0.7732932707701681 -3.0499555150385365
0.7732904808004586 -3.33526841838945
0.7732780320908096 -3.6088784271609273
0.7732558184078321 -3.86715369467163
0.7732509913450412 -4.1061388377220664
0.7733556487344715 -4.321588431460959
0.7737737938041195 -4.509036579232036
0.7748672364808645 -4.663949635218764
0.7771168572090821 -4.781995808297362
0.7810634425210031 -4.859279552525865
0.7882231892386743 -4.8924180292493915
0.7953829359563466 -4.859279552525694
0.799329521268267 -4.781995808297018
0.8015791419964832 -4.66394963521827
0.802672584673228 -4.509036579231423
0.8030907297428768 -4.321588431460262
0.8031953871323083 -4.106138837721309
0.8031905600695188 -3.8671536946708343
0.8031683463865433 -3.608878427160116
0.8031558976768967 -3.3352684183886487
0.8031531077071886 -3.0499555150377704
0.8031530606379728 -2.7562271224053143
0.8031526266730687 -2.456911222246064
0.8031506894909216 -2.154259897871109
0.8031461919479449 -1.8498150410536005
0.8031351776647301 -1.5444428842167797
0.8031080589052115 -1.238520957014938
0.8030558258921151 -0.9321952770608681
0.8029915120522815 -0.6255533390195311
0.8029586596413434 -0.31871262426429536
0.8032126379846078 -0.011776329547973615
0.8497862241749301 -0.01200038298289985
0.8499532899494079 -0.31874275150265974
0.8498859183851661 -0.6255480261616913
0.8497601084974155 -0.9321773897020483
0.8496109574526319 -1.2385030140949733
0.8494380628246351 -1.5444272950652034
0.8492043965244865 -1.849796948959824
0.8488291302477201 -2.154229610419
0.8481480157756215 -2.4568537034413604
0.8469405108511204 -2.756119207909383
0.845036331799969 -3.049774849038
0.8423187904009943 -3.3349953190046815
0.8387071839620293 -3.608498939545996
0.8341248248883344 -3.8666579726473573
0.8285225607069087 -4.105528581433673
0.8219310890332441 -4.320889244561443
0.814521048941114 -4.508310956122955
0.8066613227618101 -4.663306162088704
0.798893709750286 -4.781544732146893
0.7920023875091053 -4.859185211002292
0.7882231892386542 -4.893471799473515
0.7844439909682027 -4.859185211002122
0.7775526687270228 -4.781544732146549
0.7697850557155036 -4.66330616208821
0.7619253295362066 -4.508310956122343
0.7545152894440844 -4.320889244560748
0.747923817770427 -4.1055285814329165
0.7423215535890086 -3.8666579726465624
0.7377391945153218 -3.6084989395451865
0.7341275880763646 -3.3349953190038812
0.731410046677397 -3.0497748490372345
0.729505867626251 -2.75611920790867
0.7282983627017534 -2.456853703440709
0.7276172482296571 -2.1542296104184206
0.7272419819528918 -1.849796948959321
0.7270083156527438 -1.5444272950647824
0.7268354210247472 -1.238503014094632
0.7266862699799638 -0.9321773897017883
0.7265604600922132 -0.6255480261615102
0.7264930885279713 -0.31874275150255904
0.7266601543024489 -0.012000382982881664
0.9263029393596482 -0.012169640039509001
0.9264119785241357 -0.3187718336936962
0.9263139122811979 -0.6255372866349292
0.9261290301561929 -0.9321516780803331
0.9258863680435965 -1.2384714905615066
0.9255713162812887 -1.5443904789564975
0.9251148119932542 -1.8497438595718112
0.9243232957926051 -2.1541247948465245
0.9228479023363214 -2.4566273488859665
0.9203066160624134 -2.755689483012709
0.916389203078776 -3.0490824611244047
0.9108778625127363 -3.3340010095358124
0.9036040269409453 -3.607171850111222
0.894414254470016 -3.8649698306820746
0.8831825445689302 -4.103464116630922
0.8698696502750802 -4.318462156449354
0.8546073368299644 -4.505581576439625
0.8377547070009725 -4.660389584899659
0.8199663038840675 -4.778617590478404
0.8025555680196208 -4.856633041605811
0.7882231892386349 -4.892166441056432
0.7738908104576491 -4.856633041605639
0.7564800745932057 -4.778617590478061
0.7386916714763094 -4.660389584899167
0.7218390416473298 -4.505581576439016