# vtk DataFile Version 3.0
Some data
ASCII
DATASET UNSTRUCTURED_GRID
POINTS 861 float
0.0 0.0 0.0
0.4 0.0 0.0
0.8 0.0 0.0
1.2000000000000002 0.0 0.0
1.6 0.0 0.0
2.0 0.0 0.0
2.4000000000000004 0.0 0.0
2.8000000000000003 0.0 0.0
3.2 0.0 0.0
3.6 0.0 0.0
4.0 0.0 0.0
4.4 0.0 0.0
4.800000000000001 0.0 0.0
5.2 0.0 0.0
5.6000000000000005 0.0 0.0
6.0 0.0 0.0
6.4 0.0 0.0
6.800000000000001 0.0 0.0
7.2 0.0 0.0
7.6000000000000005 0.0 0.0
8.0 0.0 0.0
8.4 0.0 0.0
8.8 0.0 0.0
9.200000000000001 0.0 0.0
9.600000000000001 0.0 0.0
10.0 0.0 0.0
10.4 0.0 0.0
10.8 0.0 0.0
11.200000000000001 0.0 0.0
11.600000000000001 0.0 0.0
12.0 0.0 0.0
12.4 0.0 0.0
12.8 0.0 0.0
13.200000000000001 0.0 0.0
13.600000000000001 0.0 0.0
14.0 0.0 0.0
14.4 0.0 0.0
14.8 0.0 0.0
15.200000000000001 0.0 0.0
15.600000000000001 0.0 0.0
16.0 0.0 0.0
0.0 0.1 0.0
0.4 0.1 0.0
0.8 0.1 0.0
1.2000000000000002 0.1 0.0
1.6 0.1 0.0
2.0 0.1 0.0
2.4000000000000004 0.1 0.0
2.8000000000000003 0.1 0.0
3.2 0.1 0.0
3.6 0.1 0.0
4.0 0.1 0.0
4.4 0.1 0.0
4.800000000000001 0.1 0.0
5.2 0.1 0.0
5.6000000000000005 0.1 0.0
6.0 0.1 0.0
6.4 0.1 0.0
6.800000000000001 0.1 0.0
7.2 0.1 0.0
7.6000000000000005 0.1 0.0
8.0 0.1 0.0
8.4 0.1 0.0
8.8 0.1 0.0
9.200000000000001 0.1 0.0
9.600000000000001 0.1 0.0
10.0 0.1 0.0
10.4 0.1 0.0
10.8 0.1 0.0
11.200000000000001 0.1 0.0
11.600000000000001 0.1 0.0
12.0 0.1 0.0
12.4 0.1 0.0
12.8 0.1 0.0
13.200000000000001 0.1 0.0
13.600000000000001 0.1 0.0
14.0 0.1 0.0
14.4 0.1 0.0
14.8 0.1 0.0
15.200000000000001 0.1 0.0
15.600000000000001 0.1 0.0
16.0 0.1 0.0
0.0 0.2 0.0
0.4 0.2 0.0
0.8 0.2 0.0
1.2000000000000002 0.2 0.0
1.6 0.2 0.0
2.0 0.2 0.0
2.4000000000000004 0.2 0.0
2.8000000000000003 0.2 0.0
3.2 0.2 0.0
3.6 0.2 0.0
4.0 0.2 0.0
4.4 0.2 0.0
4.800000000000001 0.2 0.0
5.2 0.2 0.0
5.6000000000000005 0.2 0.0
6.0 0.2 0.0
6.4 0.2 0.0
6.800000000000001 0.2 0.0
7.2 0.2 0.0
7.6000000000000005 0.2 0.0
8.0 0.2 0.0
8.4 0.2 0.0
8.8 0.2 0.0
9.200000000000001 0.2 0.0
9.600000000000001 0.2 0.0
10.0 0.2 0.0
10.4 0.2 0.0
10.8 0.2 0.0
11.200000000000001 0.2 0.0
11.600000000000001 0.2 0.0
12.0 0.2 0.0
12.4 0.2 0.0
12.8 0.2 0.0
13.200000000000001 0.2 0.0
13.600000000000001 0.2 0.0
14.0 0.2 0.0
14.4 0.2 0.0
14.8 0.2 0.0
15.200000000000001 0.2 0.0
15.600000000000001 0.2 0.0
16.0 0.2 0.0
0.0 0.30000000000000004 0.0
0.4 0.30000000000000004 0.0
0.8 0.30000000000000004 0.0
1.2000000000000002 0.30000000000000004 0.0
1.6 0.30000000000000004 0.0
2.0 0.30000000000000004 0.0
2.4000000000000004 0.30000000000000004 0.0
2.8000000000000003 0.30000000000000004 0.0
3.2 0.30000000000000004 0.0
3.6 0.30000000000000004 0.0
4.0 0.30000000000000004 0.0
4.4 0.30000000000000004 0.0
4.800000000000001 0.30000000000000004 0.0
5.2 0.30000000000000004 0.0
5.6000000000000005 0.30000000000000004 0.0
6.0 0.30000000000000004 0.0
6.4 0.30000000000000004 0.0
6.800000000000001 0.30000000000000004 0.0
7.2 0.30000000000000004 0.0
7.6000000000000005 0.30000000000000004 0.0
8.0 0.30000000000000004 0.0
8.4 0.30000000000000004 0.0
8.8 0.30000000000000004 0.0
9.200000000000001 0.30000000000000004 0.0
9.600000000000001 0.30000000000000004 0.0
10.0 0.30000000000000004 0.0
10.4 0.30000000000000004 0.0
10.8 0.30000000000000004 0.0
11.200000000000001 0.30000000000000004 0.0
11.600000000000001 0.30000000000000004 0.0
12.0 0.30000000000000004 0.0
12.4 0.30000000000000004 0.0
12.8 0.30000000000000004 0.0
13.200000000000001 0.30000000000000004 0.0
13.600000000000001 0.30000000000000004 0.0
14.0 0.30000000000000004 0.0
14.4 0.30000000000000004 0.0
14.8 0.30000000000000004 0.0
15.200000000000001 0.30000000000000004 0.0
15.600000000000001 0.30000000000000004 0.0
16.0 0.30000000000000004 0.0
0.0 0.4 0.0
0.4 0.4 0.0
0.8 0.4 0.0
1.2000000000000002 0.4 0.0
1.6 0.4 0.0
2.0 0.4 0.0
2.4000000000000004 0.4 0.0
2.8000000000000003 0.4 0.0
3.2 0.4 0.0
3.6 0.4 0.0
4.0 0.4 0.0
4.4 0.4 0.0
4.800000000000001 0.4 0.0
5.2 0.4 0.0
5.6000000000000005 0.4 0.0
6.0 0.4 0.0
6.4 0.4 0.0
6.800000000000001 0.4 0.0
7.2 0.4 0.0
7.6000000000000005 0.4 0.0
8.0 0.4 0.0
8.4 0.4 0.0
8.8 0.4 0.0
9.200000000000001 0.4 0.0
9.600000000000001 0.4 0.0
10.0 0.4 0.0
10.4 0.4 0.0
10.8 0.4 0.0
11.200000000000001 0.4 0.0
11.600000000000001 0.4 0.0
12.0 0.4 0.0
12.4 0.4 0.0
12.8 0.4 0.0
13.200000000000001 0.4 0.0
13.600000000000001 0.4 0.0
14.0 0.4 0.0
14.4 0.4 0.0
14.8 0.4 0.0
15.200000000000001 0.4 0.0
15.600000000000001 0.4 0.0
16.0 0.4 0.0
0.0 0.5 0.0
0.4 0.5 0.0
0.8 0.5 0.0
1.2000000000000002 0.5 0.0
1.6 0.5 0.0
2.0 0.5 0.0
2.4000000000000004 0.5 0.0
2.8000000000000003 0.5 0.0
3.2 0.5 0.0
3.6 0.5 0.0
4.0 0.5 0.0
4.4 0.5 0.0
4.800000000000001 0.5 0.0
5.2 0.5 0.0
5.6000000000000005 0.5 0.0
6.0 0.5 0.0
6.4 0.5 0.0
6.800000000000001 0.5 0.0
7.2 0.5 0.0
7.6000000000000005 0.5 0.0
8.0 0.5 0.0
8.4 0.5 0.0
8.8 0.5 0.0
9.200000000000001 0.5 0.0
9.600000000000001 0.5 0.0
10.0 0.5 0.0
10.4 0.5 0.0
10.8 0.5 0.0
11.200000000000001 0.5 0.0
11.600000000000001 0.5 0.0
12.0 0.5 0.0
12.4 0.5 0.0
12.8 0.5 0.0
13.200000000000001 0.5 0.0
13.600000000000001 0.5 0.0
14.0 0.5 0.0
14.4 0.5 0.0
14.8 0.5 0.0
15.200000000000001 0.5 0.0
15.600000000000001 0.5 0.0
16.0 0.5 0.0
0.0 0.6000000000000001 0.0
0.4 0.6000000000000001 0.0
0.8 0.6000000000000001 0.0
1.2000000000000002 0.6000000000000001 0.0
1.6 0.6000000000000001 0.0
2.0 0.6000000000000001 0.0
2.4000000000000004 0.6000000000000001 0.0
2.8000000000000003 0.6000000000000001 0.0
3.2 0.6000000000000001 0.0
3.6 0.6000000000000001 0.0
4.0 0.6000000000000001 0.0
4.4 0.6000000000000001 0.0
4.800000000000001 0.6000000000000001 0.0
5.2 0.6000000000000001 0.0
5.6000000000000005 0.6000000000000001 0.0
6.0 0.6000000000000001 0.0
6.4 0.6000000000000001 0.0
6.800000000000001 0.6000000000000001 0.0
7.2 0.6000000000000001 0.0
7.6000000000000005 0.6000000000000001 0.0
8.0 0.6000000000000001 0.0
8.4 0.6000000000000001 0.0
8.8 0.6000000000000001 0.0
9.200000000000001 0.6000000000000001 0.0
9.600000000000001 0.6000000000000001 0.0
10.0 0.6000000000000001 0.0
10.4 0.6000000000000001 0.0
10.8 0.6000000000000001 0.0
11.200000000000001 0.6000000000000001 0.0
11.600000000000001 0.6000000000000001 0.0
12.0 0.6000000000000001 0.0
12.4 0.6000000000000001 0.0
12.8 0.6000000000000001 0.0
13.200000000000001 0.6000000000000001 0.0
13.600000000000001 0.6000000000000001 0.0
14.0 0.6000000000000001 0.0
14.4 0.6000000000000001 0.0
14.8 0.6000000000000001 0.0
15.200000000000001 0.6000000000000001 0.0
15.600000000000001 0.6000000000000001 0.0
16.0 0.6000000000000001 0.0
0.0 0.7000000000000001 0.0
0.4 0.7000000000000001 0.0
0.8 0.7000000000000001 0.0
1.2000000000000002 0.7000000000000001 0.0
1.6 0.7000000000000001 0.0
2.0 0.7000000000000001 0.0
2.4000000000000004 0.7000000000000001 0.0
2.8000000000000003 0.7000000000000001 0.0
3.2 0.7000000000000001 0.0
3.6 0.7000000000000001 0.0
4.0 0.7000000000000001 0.0
4.4 0.7000000000000001 0.0
4.800000000000001 0.7000000000000001 0.0
5.2 0.7000000000000001 0.0
5.6000000000000005 0.7000000000000001 0.0
6.0 0.7000000000000001 0.0
6.4 0.7000000000000001 0.0
6.800000000000001 0.7000000000000001 0.0
7.2 0.7000000000000001 0.0
7.6000000000000005 0.7000000000000001 0.0
8.0 0.7000000000000001 0.0
8.4 0.7000000000000001 0.0
8.8 0.7000000000000001 0.0
9.200000000000001 0.7000000000000001 0.0
9.600000000000001 0.7000000000000001 0.0
10.0 0.7000000000000001 0.0
10.4 0.7000000000000001 0.0
10.8 0.7000000000000001 0.0
11.200000000000001 0.7000000000000001 0.0
11.600000000000001 0.7000000000000001 0.0
12.0 0.7000000000000001 0.0
12.4 0.7000000000000001 0.0
12.8 0.7000000000000001 0.0
13.200000000000001 0.7000000000000001 0.0
13.600000000000001 0.7000000000000001 0.0
14.0 0.7000000000000001 0.0
14.4 0.7000000000000001 0.0
14.8 0.7000000000000001 0.0
15.200000000000001 0.7000000000000001 0.0
15.600000000000001 0.7000000000000001 0.0
16.0 0.7000000000000001 0.0
0.0 0.8 0.0
0.4 0.8 0.0
0.8 0.8 0.0
1.2000000000000002 0.8 0.0
1.6 0.8 0.0
2.0 0.8 0.0
2.4000000000000004 0.8 0.0
2.8000000000000003 0.8 0.0
3.2 0.8 0.0
3.6 0.8 0.0
4.0 0.8 0.0
4.4 0.8 0.0
4.800000000000001 0.8 0.0
5.2 0.8 0.0
5.6000000000000005 0.8 0.0
6.0 0.8 0.0
6.4 0.8 0.0
6.800000000000001 0.8 0.0
7.2 0.8 0.0
7.6000000000000005 0.8 0.0
8.0 0.8 0.0
8.4 0.8 0.0
8.8 0.8 0.0
9.200000000000001 0.8 0.0
9.600000000000001 0.8 0.0
10.0 0.8 0.0
10.4 0.8 0.0
10.8 0.8 0.0
11.200000000000001 0.8 0.0
11.600000000000001 0.8 0.0
12.0 0.8 0.0
12.4 0.8 0.0
12.8 0.8 0.0
13.200000000000001 0.8 0.0
13.600000000000001 0.8 0.0
14.0 0.8 0.0
14.4 0.8 0.0
14.8 0.8 0.0
15.200000000000001 0.8 0.0
15.600000000000001 0.8 0.0
16.0 0.8 0.0
0.0 0.9 0.0
0.4 0.9 0.0
0.8 0.9 0.0
1.2000000000000002 0.9 0.0
1.6 0.9 0.0
2.0 0.9 0.0
2.4000000000000004 0.9 0.0
2.8000000000000003 0.9 0.0
3.2 0.9 0.0
3.6 0.9 0.0
4.0 0.9 0.0
4.4 0.9 0.0
4.800000000000001 0.9 0.0
5.2 0.9 0.0
5.6000000000000005 0.9 0.0
6.0 0.9 0.0
6.4 0.9 0.0
6.800000000000001 0.9 0.0
7.2 0.9 0.0
7.6000000000000005 0.9 0.0
8.0 0.9 0.0
8.4 0.9 0.0
8.8 0.9 0.0
9.200000000000001 0.9 0.0
9.600000000000001 0.9 0.0
10.0 0.9 0.0
10.4 0.9 0.0
10.8 0.9 0.0
11.200000000000001 0.9 0.0
11.600000000000001 0.9 0.0
12.0 0.9 0.0
12.4 0.9 0.0
12.8 0.9 0.0
13.200000000000001 0.9 0.0
13.600000000000001 0.9 0.0
14.0 0.9 0.0
14.4 0.9 0.0
14.8 0.9 0.0
15.200000000000001 0.9 0.0
15.600000000000001 0.9 0.0
16.0 0.9 0.0
0.0 1.0 0.0
0.4 1.0 0.0
0.8 1.0 0.0
1.2000000000000002 1.0 0.0
1.6 1.0 0.0
2.0 1.0 0.0
2.4000000000000004 1.0 0.0
2.8000000000000003 1.0 0.0
3.2 1.0 0.0
3.6 1.0 0.0
4.0 1.0 0.0
4.4 1.0 0.0
4.800000000000001 1.0 0.0
5.2 1.0 0.0
5.6000000000000005 1.0 0.0
6.0 1.0 0.0
6.4 1.0 0.0
6.800000000000001 1.0 0.0
7.2 1.0 0.0
7.6000000000000005 1.0 0.0
8.0 1.0 0.0
8.4 1.0 0.0
8.8 1.0 0.0
9.200000000000001 1.0 0.0
9.600000000000001 1.0 0.0
10.0 1.0 0.0
10.4 1.0 0.0
10.8 1.0 0.0
11.200000000000001 1.0 0.0
11.600000000000001 1.0 0.0
12.0 1.0 0.0
12.4 1.0 0.0
12.8 1.0 0.0
13.200000000000001 1.0 0.0
13.600000000000001 1.0 0.0
14.0 1.0 0.0
14.4 1.0 0.0
14.8 1.0 0.0
15.200000000000001 1.0 0.0
15.600000000000001 1.0 0.0
16.0 1.0 0.0
0.0 1.1 0.0
0.4 1.1 0.0
0.8 1.1 0.0
1.2000000000000002 1.1 0.0
1.6 1.1 0.0
[...]
POINT_DATA 861
SCALARS Disp float 2
LOOKUP_TABLE default
0.0 0.0
0.004605441219075115 -0.1509971931727314
0.005670122845368791 -0.2944537781872611
0.006399431450188776 -0.4371588791543409
0.007283443406071697 -0.5795647073114553
0.008548200621283685 -0.7214143887884391
0.010554943120227055 -0.8623824849765026
0.013691494852965712 -1.0020823704782948
0.01839792597935344 -1.1400371434218097
0.0251458661694505 -1.2756349459380394
0.034419475206372875 -1.4080565283950028
0.04672843815344634 -1.5362165692599028
0.06262369601999301 -1.6587524601572554
0.08269011226651835 -1.7740696447031807
0.10754373476921959 -1.8803841410164999
0.13775976838734647 -1.9757554829254533
0.17374037728547326 -2.05812497967611
0.21554759219047193 -2.1253808690348017
0.2627507516153266 -2.175498537449345
0.3143505342447346 -2.2067685969389905
0.36870562345906205 -2.218018457701367
0.423060712673387 -2.206768596938929
0.47466049530278626 -2.175498537449218
0.5218636547276252 -2.1253808690346188
0.5636708696326043 -2.05812497967588
0.5996514785307097 -1.975755482925191
0.6298675121488153 -1.8803841410162117
0.6547211346514948 -1.7740696447028745
0.6747875508979982 -1.658752460156941
0.6906828087645231 -1.5362165692595897
0.7029917717115772 -1.4080565283946997
0.7122653807484837 -1.2756349459377534
0.7190133209385681 -1.1400371434215442
0.723719752064946 -1.0020823704780544
0.7268563037976778 -0.8623824849762894
0.728863046296617 -0.7214143887882577
0.7301278035118273 -0.5795647073113054
0.7310118154677094 -0.43715887915422474
0.7317411240725291 -0.2944537781871781
0.7328058056988219 -0.15099719317268365
0.7374112469178937 0.0
0.03767568873933488 -0.00199140781642607
0.04080068540503844 -0.15115355977061312
0.041379545870583 -0.2945157782905606
0.04203437763421113 -0.4372396483586097
0.04282270103302938 -0.5796734820032177
0.043916291578722566 -0.7216230551763028
0.04565925673249829 -0.8627819597331746
0.04842103079106694 -1.0027737563866828
0.052614477289186376 -1.1411320839818972
0.058667332954224216 -1.2772455569056058
0.06700884261434635 -1.4102965521889452
0.0780803093212808 -1.5392078388824073
0.09236237903382091 -1.6626291271549725
0.11039207547641734 -1.7789769404212075
0.13273638502668444 -1.8864707837094004
0.15993433002522298 -1.9831483650453268
0.1923705005392868 -2.0668911576444366
0.23012297102194887 -2.135487691120343
0.27282806683577326 -2.186783087853935
0.31957011880867464 -2.2189220686261724
0.3687056234590545 -2.2305194297384867
0.41784112810943175 -2.2189220686261097
0.4645831800823249 -2.1867830878538053
0.5072882758961357 -2.1354876911201557
0.5450407463787807 -2.0668911576442017
0.5774769168928258 -1.9831483650450596
0.604674861891345 -1.8864707837091073
0.6270191714415925 -1.7789769404208966
0.6450488678841693 -1.662629127154653
0.6593309375966899 -1.5392078388820898
0.6704024043036069 -1.4102965521886384
0.6787439139637146 -1.2772455569053165
0.6847967696287408 -1.1411320839816292
0.6889902161268514 -1.0027737563864405
0.6917519901854139 -0.8627819597329605
0.693494955339186 -0.7216230551761207
0.6945885458848777 -0.5796734820030677
0.6953768692836956 -0.4372396483584936
0.6960317010473235 -0.29451577829047754
0.696610561512868 -0.15115355977056513
0.6997355581785669 -0.001991407816423757
0.07452547441446272 -0.003549529649559555
0.0767743952900576 -0.15122682948232893
0.07711094904972861 -0.2945533499737682
0.07764674269854595 -0.43731238994345284
0.07834615063578536 -0.5797643326083756
0.07928667241473984 -0.7217891636026149
0.08076752244214325 -0.8631119761567629
0.08315445813403041 -1.0033633828028532
0.08682639841994017 -1.1420850194089534
0.0921706531044105 -1.2786628938078552
0.09956379680036179 -1.4122779608514762
0.10938577019096762 -1.5418580889946787
0.12204971611760869 -1.6660663551242378
0.13802860393999225 -1.7833344867040026
0.15784484444154043 -1.8918859188775072
0.18199535305445302 -1.9897403758095775
0.21085116498424059 -2.0747273923560368
0.24452252403599634 -2.1445471245385934
0.28271994703631287 -2.1969249210538413
0.3246039548827871 -2.229848094016826
0.3687056234590473 -2.241766726471512
0.412807292035305 -2.229848094016761
0.4546912998817714 -2.1969249210537094
0.49288872288207614 -2.144547124538402
0.5265600819338172 -2.074727392355798
0.5554158938635883 -1.9897403758093062
0.5795664024764834 -1.89188591887721
0.5993826429780141 -1.7833344867036869
0.6153615308003801 -1.6660663551239139
0.6280254767270043 -1.5418580889943572
0.6378474501175944 -1.4122779608511657
0.6452405938135328 -1.2786628938075633
0.6505848484979927 -1.1420850194086833
0.6542567887838945 -1.0033633828026094
0.6566437244757762 -0.8631119761565479
0.6581245745031767 -0.7217891636024323
0.6590650962821301 -0.5797643326082254
0.6597645042193692 -0.43731238994333677
0.6603002978681864 -0.29455334997368526
0.6606368516278576 -0.15122682948228067
0.6628857725034479 -0.003549529649554834
0.11094470906442369 -0.004792833185189022
0.112616168824771 -0.15127605433998462
0.11282266966247416 -0.29457457933984854
0.11324206599602546 -0.4373726146507671
0.11384802174762843 -0.5798428017902978
0.11465537844597243 -0.7219186671028257
0.11588787046960258 -0.8633741290376914
0.11790049579720767 -1.0038524703345577
0.1210472523317101 -1.1428949198717748
0.12567426119987996 -1.2798849778977721
0.1321091347248076 -1.4139986148413186
0.14067306357606674 -1.5441669221591277
0.1517158192580786 -1.6690647237286074
0.16564472859771853 -1.7871405461416674
0.1829201843760025 -1.8966256906806263
0.20400341314578263 -1.9955255577175934
0.22925378759809667 -2.081627080597438
0.2588149922168933 -2.1525546447672226
0.29247738452396854 -2.2059207090491615
0.3295305575352778 -2.239567514814118
0.36870562345904045 -2.251807577925133
0.4078806893828003 -2.2395675148140524
0.44493386239410276 -2.205920709049027
0.47859625470116735 -2.1525546447670285
0.5081574593199509 -2.0816270805971957
0.5334078337722509 -1.9955255577173183
0.5544910625420157 -1.8966256906803247
0.5717665183202844 -1.787140546141348
0.5856954276599088 -1.6690647237282799
0.596738183341906 -1.5441669221588024
0.6053021121931516 -1.4139986148410049
0.6117369857180677 -1.2798849778974775
0.6163639945862284 -1.1428949198715028
0.6195107511207238 -1.0038524703343126
0.6215233764483243 -0.8633741290374753
0.6227558684719522 -0.7219186671026427
0.6235632251702953 -0.5798428017901476
0.624169180921898 -0.43737261465065097
0.6245885772554494 -0.2945745793397657
0.6247950780931525 -0.15127605433993607
0.6264665378534958 -0.004792833185182138
0.1471148362700913 -0.005790129661819622
0.1483641208947324 -0.15131727235965584
0.1484989016523527 -0.2945866068595017
0.14881837526589947 -0.43741934360800777
0.1493268899684193 -0.5799103607169155
0.15001312717222617 -0.7220210800903004
0.15102572977555365 -0.8635739647404926
0.15266806616803846 -1.0042426894549932
0.15529085869042042 -1.143562680934509
0.159197263111058 -1.2809113475172629
0.16466883075757655 -1.4154583260983804
0.17197259297160983 -1.5461345961700308
0.18139441423180944 -1.6716256784181152
0.19327533222371393 -1.7903968202264768
0.2080161130875256 -1.9006891179396754
0.22602494599133255 -2.000500590667249
0.24764988137893187 -2.0875850147111166
0.2730709597771752 -2.1595031973944394
0.30216977635390246 -2.213768516190114
0.33439909347135843 -2.2480947830480087
0.3687056234590336 -2.260668920798608
0.4030121534467063 -2.2480947830479416
0.4352414705641561 -2.213768516189978
0.46434028714087383 -2.1595031973942422
0.48976136553910593 -2.0875850147108714
0.5113863009266929 -2.0005005906669706
0.5293951338304869 -1.9006891179393708
0.5441359146942852 -1.7903968202261542
0.5560168326861765 -1.6716256784177843
0.5654386539463636 -1.5461345961697024
0.5727424161603852 -1.4154583260980642
0.578213983806894 -1.280911347516966
0.5821203882275237 -1.143562680934235
0.5847431807498996 -1.004242689454747
0.5863855171423807 -0.8635739647402759
0.5873981197457064 -0.7220210800901172
0.5880843569495128 -0.5799103607167652
0.5885928716520323 -0.4374193436078917
0.5889123452655792 -0.29458660685941884
0.5890471260231994 -0.15131727235960704
0.5902964106478372 -0.0057901296618108914
0.18311946946583174 -0.006585257437723215
0.18404551171434233 -0.1513553402100015
0.18413758777655245 -0.294594332222097
0.18437331904622525 -0.4374534914676321
0.18478255293477763 -0.5799670963294808
0.18535427348710087 -0.7221029314520845
0.1861720966304573 -0.8637222017900412
0.18747315607305173 -1.0045370928287403
0.18957168213809802 -1.144090538826664
0.19275940578213413 -1.281743498698778
0.19726810009181958 -1.4166581140065744
0.203313273232616 -1.5477631448084068
0.21112087039110816 -1.673752092544024
0.22096491337060373 -1.793106369692262
0.233177352509766 -1.904079358233942
0.24812146288541445 -2.0046660155869604
0.26611789248214146 -2.092597304728482
0.2873695267734703 -2.1653854548545675
0.31186688261774115 -2.2204637722415015
0.33925217949690795 -2.2554353821898254
0.3687056234590268 -2.268365890046281
0.39815906742114326 -2.255435382189757
0.4255443643003044 -2.2204637722413634
0.4500417201445672 -2.165385454854368
0.4712933544358865 -2.0925973047282342
0.48928978403260315 -2.004666015586679
0.5042338944082406 -1.9040793582336342
0.5164463335473917 -1.7931063696919365
0.5262903765268765 -1.6737520925436904
0.534097973685358 -1.547763144808076
0.540143146826145 -1.4166581140062555
0.5446518411358222 -1.281743498698479
0.5478395647798517 -1.1440905388263887
0.5499380908448931 -1.004537092828493
0.5512391502874846 -0.8637222017898242
0.5520569734308398 -0.7221029314519013
0.5526286939831627 -0.5799670963293304
0.5530379278717149 -0.43745349146751594
0.5532736591413876 -0.29459433222201425
0.5533657352035977 -0.15135534020995248
0.5542917774521058 -0.006585257437712922
0.21900386992015114 -0.007212119212210517
0.21967960426649488 -0.15139152342614748
0.2197425740834672 -0.2946002765900636
0.21990624770106582 -0.4374765452484386
0.2202172558863084 -0.5800122204421015
0.220674879969944 -0.7221684844270376
0.22131642303083085 -0.8638305795739831
0.2223100533212831 -1.0047474466268582
0.22391026918134574 -1.1444821179624738
0.22638174819204177 -1.2823846510250747
0.22993372174786844 -1.4176011078488266
0.23472698591477523 -1.5490560216825882
0.24093091979669448 -1.675448666000177
0.24875398443584534 -1.7952749794882754
0.2584607438975311 -1.9068012940637888
0.27035326041004454 -2.0080259927636974
0.2847269869305498 -2.096664166925917
0.30179772470839933 -2.1701948145467367
0.3216481468209519 -2.2259973073576163
0.3441343407891493 -2.261585187971864
0.3687056234590197 -2.274903436756457
0.39327690612888805 -2.261585187971795
0.4157631000970807 -2.225997307357477
0.43561352220962646 -2.1701948145465355
0.45268425998746814 -2.096664166925667
0.46705798650796504 -2.008025992763413
0.4789505030204694 -1.9068012940634789
0.4886572624821464 -1.7952749794879481
0.4964803271212888 -1.6754486659998415
0.5026842610031996 -1.549056021682255
0.5074775251700988 -1.4176011078485065
0.5110294987259189 -1.282384651024774
0.5135009777366097 -1.1444821179621976
0.5151011935966687 -1.00474744662661
0.5160948238871188 -0.8638305795737656
0.5167363669480048 -0.7221684844268543
0.5171939910316402 -0.580012220441951
0.5175049992168825 -0.4374765452483224
0.5176686728344811 -0.2946002765899808
0.5177316426514534 -0.15139152342609832
0.5184073769977952 -0.007212119212198943
0.2547989845896018 -0.007697529784022218
0.2552805175719948 -0.15142706124215422
0.255319651936552 -0.29460501628317237
0.2554183527790167 -0.43748994202550295
0.2556337265243774 -0.5800449361955978
0.25597324905459357 -0.7222198717169411
0.256454645660742 -0.8639072325399001
0.25717028620725574 -1.0048887120442023
0.2583115767792092 -1.1447490359922279
0.26009162698030236 -1.28284051675107
0.2626949549502855 -1.4182925009762772
0.2662466784353012 -1.55001874827171
0.27086277723225477 -1.676722188738688
0.2766876192678756 -1.7969108827882556
0.2839154659504533 -1.9088640433305597
0.2927857637409029 -2.010587472827428
0.30355399643837744 -2.099789080233526
0.31643718510274665 -2.173927960645796
0.3315969059066185 -2.23035621108623
0.3490969937890286 -2.266529362291377
0.3687056234590122 -2.2802757647503933
0.38831425312899465 -2.266529362291307
0.405814341011401 -2.2303562110860886
0.42097406181526736 -2.1739279606455932
0.43385725047963053 -2.099789080233274
0.44462548317709844 -2.0105874728271416
0.4534957809675411 -1.908864043330248
0.46072362765011243 -1.7969108827879263
0.4665484696857272 -1.6767221887383505
0.4711645684826746 -1.5500187482713754
0.47471629196768445 -1.4182925009759555
0.4773196199376627 -1.2828405167507682
0.4790996701387523 -1.1447490359919508
0.4802409607107031 -1.0048887120439538
0.48095660125721557 -0.8639072325396824
0.4814379978633634 -0.7222198717167578
0.48177752039357935 -0.5800449361954473
0.48199289413894 -0.43748994202538677
0.4820915949814046 -0.2946050162830895
0.4821307293459616 -0.15142706124210506
0.48261226232835336 -0.0076975297840096565
0.2905222163726626 -0.00806777674882326
0.2908613789551615 -0.15146284003244037
0.2908738941431325 -0.29460793848239913
0.2909122859911936 -0.4374947756918532
0.29103529955094176 -0.5800651019186671
0.2912533217859294 -0.7222561836862111
0.29157540557258577 -0.863960602835989
0.29204545949068816 -1.0049758229179515
0.29277072432659995 -1.1449097566378965
0.293903278073463 -1.2831251260774255
0.29558477529200217 -1.4187415078488113
0.29791258540000337 -1.5506603182109788
0.3009586298105911 -1.677582619641375
0.3048117573095544 -1.798025861851575
0.309596394805753 -1.910280383347159
0.31548156190767124 -2.012362201413425
0.32267125259874646 -2.1019805560059335
0.331381159238758 -2.1765854853024766
0.3418110310485855 -2.233525897370856
0.35420240058482794 -2.270242089338604
0.3687056234590045 -2.2844656785548367
0.38320884633318053 -2.270242089338534
0.39560021586942046 -2.233525897370714
0.4060300876792439 -2.176585485302273
0.4147399943192512 -2.1019805560056803
0.4219296850103218 -2.0123622014131373
0.42781485211223563 -1.910280383346846
0.43259948960843003 -1.7980258618512446
0.43645261710738964 -1.6775826196410364
0.43949866151797345 -1.5506603182106429
0.4418264716259708 -1.4187415078484886
0.44350796884450683 -1.2831251260771228
0.4446405225913677 -1.144909756637619
0.445365787427278 -1.0049758229177028
0.4458358413453797 -0.8639606028357713
0.4461579251320358 -0.7222561836860277
0.44637594736702324 -0.5800651019185166
0.44649896092677127 -0.43749477569173695
0.44653735277483236 -0.29460793848231626
0.44654986796280316 -0.15146284003239124
0.44688903054530127 -0.008067776748809985
0.32618498918981786 -0.008350500486746222
0.3264259870296523 -0.15150001597446763
0.3264105105864689 -0.29460783288006065
0.3263916533387071 -0.4374918882518647
0.3264253981911105 -0.5800729481074886
0.3265209552448497 -0.7222761595350107
0.32667861000224585 -0.8639927310835783
0.3269146865193797 -1.0050247365646954
0.3272701203442115 -1.1449894820029858
0.32781507372063673 -1.2832641239097216
0.3286248129481849 -1.4189692615482812
0.3297637377207178 -1.550998451235795
0.3312650565946204 -1.6780469874167288
0.33317291283548023 -1.798638502077683
0.3355512571829144 -1.9110705349562138
0.3384926347999388 -2.013369595578161
0.3421367719359487 -2.1032535794356666
0.3466833509358852 -2.178178567153397
0.35238772815467934 -2.235498798834479
0.3595469240724355 -2.272686139243202
0.36870562345899666 -2.287439285701577
0.37786432284555777 -2.2726861392431315
0.38502351876331264 -2.235498798834337
0.39072789598210433 -2.1781785671531924
0.39527447498203827 -2.103253579435413
0.398918612118046 -2.0133695955778723
0.4018599897350683 -1.9110705349559
0.4042383340825008 -1.7986385020773517
0.4061461903233592 -1.6780469874163897
0.4076475091972601 -1.5509984512354587
0.40878643396979136 -1.4189692615479579
0.40959617319733826 -1.283264123909419
0.41014112657376267 -1.1449894820027082
0.41049656039859395 -1.0050247365644465
0.41073263691572737 -0.8639927310833605
0.41089029167312346 -0.7222761595348272
0.4109858487268626 -0.580072948107338
0.41101959357926604 -0.4374918882517485
0.41100073633150425 -0.29460783287997766
0.4109852598883208 -0.15150001597441853
0.4112262577281547 -0.008350500486732457
0.3618029393478581 -0.008567772256405622
0.3619748036702108 -0.1515386720160776
0.36193396521038956 -0.2946040917216029
0.3618606361816908 -0.4374818030632272
0.36180813382902455 -0.580068767365651
0.36178196044619093 -0.7222794757398051
0.36177247387987055 -0.8640026582074808
0.36177022629163147 -1.0050409514646306
0.3617700236814496 -1.1450144260436645
0.361770326322258 -1.283303384444673
0.36177050984341014 -1.4190287924264586
0.3617708645989843 -1.551085827903043
0.3617687982748191 -1.6781675589654588
0.3617624238918633 -1.7987979939925405
0.36175178575930217 -1.9112823271582728
0.3617575714226434 -2.013654472689044
0.3618586255134015 -2.1036478279569124
0.36224452426508424 -2.178741219123095
0.36323284331430145 -2.236307491881221
0.36519641586159757 -2.273838767451922
0.3687056234589886 -2.289149796486395
0.37221483105637987 -2.273838767451851
0.3741784036036755 -2.2363074918810786
0.37516672265289197 -2.1787412191228896
0.3755526214045746 -2.1036478279566584
0.3756536754953333 -2.0136544726887555
0.37565946115867493 -1.9112823271579586
0.3756488230261144 -1.7987979939922094
0.3756424486431593 -1.6781675589651195
0.375640382318995 -1.5510858279027069
0.3756407370745698 -1.4190287924261353
0.3756409205957225 -1.2833033844443706
0.37564122323653126 -1.145014426043387
0.3756410206263495 -1.0050409514643814
0.3756387730381105 -0.864002658207263
0.3756292864717903 -0.7222794757396217
0.3756031130889567 -0.5800687673655006
0.3755506107362906 -0.4374818030631109
0.37547728170759187 -0.29460409172151997
0.37543644324777065 -0.15153867201602852
0.3756083075701231 -0.008567772256391588
0.3973874367105179 -0.008737747537198024
0.39751207490549956 -0.15157635357893184
0.397448137709392 -0.29459704518284674
0.3973237212578099 -0.43746480861546
0.39718795379729066 -0.5800530213102749
0.39704218233661726 -0.7222662331863535
0.3968665632259747 -0.8639899777172747
0.3966255752028068 -1.0050242438149162
0.39626989438255816 -1.144989589699899
0.39572556592231517 -1.2832641710386752
0.39491680328381845 -1.4189695820415273
0.39377819394240865 -1.5509980554227827
0.39227260466414976 -1.6780453410975986
0.3903516168285185 -1.7986346519657033
0.38795233813942115 -1.911067600360731
0.38502363713301946 -2.0133868137056528
0.3815748335289825 -2.103346485169672
0.37774477146210717 -2.178457870848595
0.37385176461830505 -2.2361165791722675
0.37040783786080433 -2.2738101679672473
0.36870562345898056 -2.2897124360493564
0.36700340905715656 -2.273810167967177
0.36355948229965557 -2.236116579172125
0.35966647545585495 -2.17845787084839
0.35583641338898264 -2.1033464851694186
0.35238760978494915 -2.0133868137053645
0.3494589087785502 -1.9110676003604172
0.3470596300894556 -1.7986346519653722
0.34513864225382745 -1.6780453410972598
0.34363305297557195 -1.550998055422447
0.34249444363416504 -1.4189695820412043
0.3416856809956708 -1.283264171038373
0.3411413525354293 -1.1449895896996216
0.3407856717151816 -1.005024243814667
0.3405446836920142 -0.8639899777170569
0.34036906458137206 -0.72226623318617
0.3402232931206988 -0.5800530213101245
0.3400875256601797 -0.43746480861534376
0.33996310920859774 -0.29459704518276375
0.33989917201249026 -0.15157635357888277
0.34002381020747174 -0.008737747537183798
0.4329545498540158 -0.008868908250461396
0.4330425768128891 -0.15161124112005123
0.4329576010141337 -0.2945868615630243
0.43278535399679813 -0.4374412754418708
0.43256958042111743 -0.5800263038120272
0.43230734013987254 -0.7222367520690478
0.4319685455174825 -0.8639551421027445
0.43149460899297554 -1.0049748708458397
0.4307691225678464 -1.144909968895151
0.4296377329285276 -1.2831254135300916
0.4279570810034384 -1.418741909649908
0.4256290168803481 -1.550659445254404
0.42257945130711344 -1.6775789080650252
0.4187149633332067 -1.7980175576645296
0.41391087065200266 -1.910273999621999
0.40803401415628815 -2.012396723914479