# vtk DataFile Version 3.0
Some data
ASCII
DATASET UNSTRUCTURED_GRID
POINTS 861 float
0.0 0.0 0.0
0.4 0.0 0.0
0.8 0.0 0.0
1.2000000000000002 0.0 0.0
1.6 0.0 0.0
2.0 0.0 0.0
2.4000000000000004 0.0 0.0
2.8000000000000003 0.0 0.0
3.2 0.0 0.0
3.6 0.0 0.0
4.0 0.0 0.0
4.4 0.0 0.0
4.800000000000001 0.0 0.0
5.2 0.0 0.0
5.6000000000000005 0.0 0.0
6.0 0.0 0.0
6.4 0.0 0.0
6.800000000000001 0.0 0.0
7.2 0.0 0.0
7.6000000000000005 0.0 0.0
8.0 0.0 0.0
8.4 0.0 0.0
8.8 0.0 0.0
9.200000000000001 0.0 0.0
9.600000000000001 0.0 0.0
10.0 0.0 0.0
10.4 0.0 0.0
10.8 0.0 0.0
11.200000000000001 0.0 0.0
11.600000000000001 0.0 0.0
12.0 0.0 0.0
12.4 0.0 0.0
12.8 0.0 0.0
13.200000000000001 0.0 0.0
13.600000000000001 0.0 0.0
14.0 0.0 0.0
14.4 0.0 0.0
14.8 0.0 0.0
15.200000000000001 0.0 0.0
15.600000000000001 0.0 0.0
16.0 0.0 0.0
0.0 0.1 0.0
0.4 0.1 0.0
0.8 0.1 0.0
1.2000000000000002 0.1 0.0
1.6 0.1 0.0
2.0 0.1 0.0
2.4000000000000004 0.1 0.0
2.8000000000000003 0.1 0.0
3.2 0.1 0.0
3.6 0.1 0.0
4.0 0.1 0.0
4.4 0.1 0.0
4.800000000000001 0.1 0.0
5.2 0.1 0.0
5.6000000000000005 0.1 0.0
6.0 0.1 0.0
6.4 0.1 0.0
6.800000000000001 0.1 0.0
7.2 0.1 0.0
7.6000000000000005 0.1 0.0
8.0 0.1 0.0
8.4 0.1 0.0
8.8 0.1 0.0
9.200000000000001 0.1 0.0
9.600000000000001 0.1 0.0
10.0 0.1 0.0
10.4 0.1 0.0
10.8 0.1 0.0
11.200000000000001 0.1 0.0
11.600000000000001 0.1 0.0
12.0 0.1 0.0
12.4 0.1 0.0
12.8 0.1 0.0
13.200000000000001 0.1 0.0
13.600000000000001 0.1 0.0
14.0 0.1 0.0
14.4 0.1 0.0
14.8 0.1 0.0
15.200000000000001 0.1 0.0
15.600000000000001 0.1 0.0
16.0 0.1 0.0
0.0 0.2 0.0
0.4 0.2 0.0
0.8 0.2 0.0
1.2000000000000002 0.2 0.0
1.6 0.2 0.0
2.0 0.2 0.0
2.4000000000000004 0.2 0.0
2.8000000000000003 0.2 0.0
3.2 0.2 0.0
3.6 0.2 0.0
4.0 0.2 0.0
4.4 0.2 0.0
4.800000000000001 0.2 0.0
5.2 0.2 0.0
5.6000000000000005 0.2 0.0
6.0 0.2 0.0
6.4 0.2 0.0
6.800000000000001 0.2 0.0
7.2 0.2 0.0
7.6000000000000005 0.2 0.0
8.0 0.2 0.0
8.4 0.2 0.0
8.8 0.2 0.0
9.200000000000001 0.2 0.0
9.600000000000001 0.2 0.0
10.0 0.2 0.0
10.4 0.2 0.0
10.8 0.2 0.0
11.200000000000001 0.2 0.0
11.600000000000001 0.2 0.0
12.0 0.2 0.0
12.4 0.2 0.0
12.8 0.2 0.0
13.200000000000001 0.2 0.0
13.600000000000001 0.2 0.0
14.0 0.2 0.0
14.4 0.2 0.0
14.8 0.2 0.0
15.200000000000001 0.2 0.0
15.600000000000001 0.2 0.0
16.0 0.2 0.0
0.0 0.30000000000000004 0.0
0.4 0.30000000000000004 0.0
0.8 0.30000000000000004 0.0
1.2000000000000002 0.30000000000000004 0.0
1.6 0.30000000000000004 0.0
2.0 0.30000000000000004 0.0
2.4000000000000004 0.30000000000000004 0.0
2.8000000000000003 0.30000000000000004 0.0
3.2 0.30000000000000004 0.0
3.6 0.30000000000000004 0.0
4.0 0.30000000000000004 0.0
4.4 0.30000000000000004 0.0
4.800000000000001 0.30000000000000004 0.0
5.2 0.30000000000000004 0.0
5.6000000000000005 0.30000000000000004 0.0
6.0 0.30000000000000004 0.0
6.4 0.30000000000000004 0.0
6.800000000000001 0.30000000000000004 0.0
7.2 0.30000000000000004 0.0
7.6000000000000005 0.30000000000000004 0.0
8.0 0.30000000000000004 0.0
8.4 0.30000000000000004 0.0
8.8 0.30000000000000004 0.0
9.200000000000001 0.30000000000000004 0.0
9.600000000000001 0.30000000000000004 0.0
10.0 0.30000000000000004 0.0
10.4 0.30000000000000004 0.0
10.8 0.30000000000000004 0.0
11.200000000000001 0.30000000000000004 0.0
11.600000000000001 0.30000000000000004 0.0
12.0 0.30000000000000004 0.0
12.4 0.30000000000000004 0.0
12.8 0.30000000000000004 0.0
13.200000000000001 0.30000000000000004 0.0
13.600000000000001 0.30000000000000004 0.0
14.0 0.30000000000000004 0.0
14.4 0.30000000000000004 0.0
14.8 0.30000000000000004 0.0
15.200000000000001 0.30000000000000004 0.0
15.600000000000001 0.30000000000000004 0.0
16.0 0.30000000000000004 0.0
0.0 0.4 0.0
0.4 0.4 0.0
0.8 0.4 0.0
1.2000000000000002 0.4 0.0
1.6 0.4 0.0
2.0 0.4 0.0
2.4000000000000004 0.4 0.0
2.8000000000000003 0.4 0.0
3.2 0.4 0.0
3.6 0.4 0.0
4.0 0.4 0.0
4.4 0.4 0.0
4.800000000000001 0.4 0.0
5.2 0.4 0.0
5.6000000000000005 0.4 0.0
6.0 0.4 0.0
6.4 0.4 0.0
6.800000000000001 0.4 0.0
7.2 0.4 0.0
7.6000000000000005 0.4 0.0
8.0 0.4 0.0
8.4 0.4 0.0
8.8 0.4 0.0
9.200000000000001 0.4 0.0
9.600000000000001 0.4 0.0
10.0 0.4 0.0
10.4 0.4 0.0
10.8 0.4 0.0
11.200000000000001 0.4 0.0
11.600000000000001 0.4 0.0
12.0 0.4 0.0
12.4 0.4 0.0
12.8 0.4 0.0
13.200000000000001 0.4 0.0
13.600000000000001 0.4 0.0
14.0 0.4 0.0
14.4 0.4 0.0
14.8 0.4 0.0
15.200000000000001 0.4 0.0
15.600000000000001 0.4 0.0
16.0 0.4 0.0
0.0 0.5 0.0
0.4 0.5 0.0
0.8 0.5 0.0
1.2000000000000002 0.5 0.0
1.6 0.5 0.0
2.0 0.5 0.0
2.4000000000000004 0.5 0.0
2.8000000000000003 0.5 0.0
3.2 0.5 0.0
3.6 0.5 0.0
4.0 0.5 0.0
4.4 0.5 0.0
4.800000000000001 0.5 0.0
5.2 0.5 0.0
5.6000000000000005 0.5 0.0
6.0 0.5 0.0
6.4 0.5 0.0
6.800000000000001 0.5 0.0
7.2 0.5 0.0
7.6000000000000005 0.5 0.0
8.0 0.5 0.0
8.4 0.5 0.0
8.8 0.5 0.0
9.200000000000001 0.5 0.0
9.600000000000001 0.5 0.0
10.0 0.5 0.0
10.4 0.5 0.0
10.8 0.5 0.0
11.200000000000001 0.5 0.0
11.600000000000001 0.5 0.0
12.0 0.5 0.0
12.4 0.5 0.0
12.8 0.5 0.0
13.200000000000001 0.5 0.0
13.600000000000001 0.5 0.0
14.0 0.5 0.0
14.4 0.5 0.0
14.8 0.5 0.0
15.200000000000001 0.5 0.0
15.600000000000001 0.5 0.0
16.0 0.5 0.0
0.0 0.6000000000000001 0.0
0.4 0.6000000000000001 0.0
0.8 0.6000000000000001 0.0
1.2000000000000002 0.6000000000000001 0.0
1.6 0.6000000000000001 0.0
2.0 0.6000000000000001 0.0
2.4000000000000004 0.6000000000000001 0.0
2.8000000000000003 0.6000000000000001 0.0
3.2 0.6000000000000001 0.0
3.6 0.6000000000000001 0.0
4.0 0.6000000000000001 0.0
4.4 0.6000000000000001 0.0
4.800000000000001 0.6000000000000001 0.0
5.2 0.6000000000000001 0.0
5.6000000000000005 0.6000000000000001 0.0
6.0 0.6000000000000001 0.0
6.4 0.6000000000000001 0.0
6.800000000000001 0.6000000000000001 0.0
7.2 0.6000000000000001 0.0
7.6000000000000005 0.6000000000000001 0.0
8.0 0.6000000000000001 0.0
8.4 0.6000000000000001 0.0
8.8 0.6000000000000001 0.0
9.200000000000001 0.6000000000000001 0.0
9.600000000000001 0.6000000000000001 0.0
10.0 0.6000000000000001 0.0
10.4 0.6000000000000001 0.0
10.8 0.6000000000000001 0.0
11.200000000000001 0.6000000000000001 0.0
11.600000000000001 0.6000000000000001 0.0
12.0 0.6000000000000001 0.0
12.4 0.6000000000000001 0.0
12.8 0.6000000000000001 0.0
13.200000000000001 0.6000000000000001 0.0
13.600000000000001 0.6000000000000001 0.0
14.0 0.6000000000000001 0.0
14.4 0.6000000000000001 0.0
14.8 0.6000000000000001 0.0
15.200000000000001 0.6000000000000001 0.0
15.600000000000001 0.6000000000000001 0.0
16.0 0.6000000000000001 0.0
0.0 0.7000000000000001 0.0
0.4 0.7000000000000001 0.0
0.8 0.7000000000000001 0.0
1.2000000000000002 0.7000000000000001 0.0
1.6 0.7000000000000001 0.0
2.0 0.7000000000000001 0.0
2.4000000000000004 0.7000000000000001 0.0
2.8000000000000003 0.7000000000000001 0.0
3.2 0.7000000000000001 0.0
3.6 0.7000000000000001 0.0
4.0 0.7000000000000001 0.0
4.4 0.7000000000000001 0.0
4.800000000000001 0.7000000000000001 0.0
5.2 0.7000000000000001 0.0
5.6000000000000005 0.7000000000000001 0.0
6.0 0.7000000000000001 0.0
6.4 0.7000000000000001 0.0
6.800000000000001 0.7000000000000001 0.0
7.2 0.7000000000000001 0.0
7.6000000000000005 0.7000000000000001 0.0
8.0 0.7000000000000001 0.0
8.4 0.7000000000000001 0.0
8.8 0.7000000000000001 0.0
9.200000000000001 0.7000000000000001 0.0
9.600000000000001 0.7000000000000001 0.0
10.0 0.7000000000000001 0.0
10.4 0.7000000000000001 0.0
10.8 0.7000000000000001 0.0
11.200000000000001 0.7000000000000001 0.0
11.600000000000001 0.7000000000000001 0.0
12.0 0.7000000000000001 0.0
12.4 0.7000000000000001 0.0
12.8 0.7000000000000001 0.0
13.200000000000001 0.7000000000000001 0.0
13.600000000000001 0.7000000000000001 0.0
14.0 0.7000000000000001 0.0
14.4 0.7000000000000001 0.0
14.8 0.7000000000000001 0.0
15.200000000000001 0.7000000000000001 0.0
15.600000000000001 0.7000000000000001 0.0
16.0 0.7000000000000001 0.0
0.0 0.8 0.0
0.4 0.8 0.0
0.8 0.8 0.0
1.2000000000000002 0.8 0.0
1.6 0.8 0.0
2.0 0.8 0.0
2.4000000000000004 0.8 0.0
2.8000000000000003 0.8 0.0
3.2 0.8 0.0
3.6 0.8 0.0
4.0 0.8 0.0
4.4 0.8 0.0
4.800000000000001 0.8 0.0
5.2 0.8 0.0
5.6000000000000005 0.8 0.0
6.0 0.8 0.0
6.4 0.8 0.0
6.800000000000001 0.8 0.0
7.2 0.8 0.0
7.6000000000000005 0.8 0.0
8.0 0.8 0.0
8.4 0.8 0.0
8.8 0.8 0.0
9.200000000000001 0.8 0.0
9.600000000000001 0.8 0.0
10.0 0.8 0.0
10.4 0.8 0.0
10.8 0.8 0.0
11.200000000000001 0.8 0.0
11.600000000000001 0.8 0.0
12.0 0.8 0.0
12.4 0.8 0.0
12.8 0.8 0.0
13.200000000000001 0.8 0.0
13.600000000000001 0.8 0.0
14.0 0.8 0.0
14.4 0.8 0.0
14.8 0.8 0.0
15.200000000000001 0.8 0.0
15.600000000000001 0.8 0.0
16.0 0.8 0.0
0.0 0.9 0.0
0.4 0.9 0.0
0.8 0.9 0.0
1.2000000000000002 0.9 0.0
1.6 0.9 0.0
2.0 0.9 0.0
2.4000000000000004 0.9 0.0
2.8000000000000003 0.9 0.0
3.2 0.9 0.0
3.6 0.9 0.0
4.0 0.9 0.0
4.4 0.9 0.0
4.800000000000001 0.9 0.0
5.2 0.9 0.0
5.6000000000000005 0.9 0.0
6.0 0.9 0.0
6.4 0.9 0.0
6.800000000000001 0.9 0.0
7.2 0.9 0.0
7.6000000000000005 0.9 0.0
8.0 0.9 0.0
8.4 0.9 0.0
8.8 0.9 0.0
9.200000000000001 0.9 0.0
9.600000000000001 0.9 0.0
10.0 0.9 0.0
10.4 0.9 0.0
10.8 0.9 0.0
11.200000000000001 0.9 0.0
11.600000000000001 0.9 0.0
12.0 0.9 0.0
12.4 0.9 0.0
12.8 0.9 0.0
13.200000000000001 0.9 0.0
13.600000000000001 0.9 0.0
14.0 0.9 0.0
14.4 0.9 0.0
14.8 0.9 0.0
15.200000000000001 0.9 0.0
15.600000000000001 0.9 0.0
16.0 0.9 0.0
0.0 1.0 0.0
0.4 1.0 0.0
0.8 1.0 0.0
1.2000000000000002 1.0 0.0
1.6 1.0 0.0
2.0 1.0 0.0
2.4000000000000004 1.0 0.0
2.8000000000000003 1.0 0.0
3.2 1.0 0.0
3.6 1.0 0.0
4.0 1.0 0.0
4.4 1.0 0.0
4.800000000000001 1.0 0.0
5.2 1.0 0.0
5.6000000000000005 1.0 0.0
6.0 1.0 0.0
6.4 1.0 0.0
6.800000000000001 1.0 0.0
7.2 1.0 0.0
7.6000000000000005 1.0 0.0
8.0 1.0 0.0
8.4 1.0 0.0
8.8 1.0 0.0
9.200000000000001 1.0 0.0
9.600000000000001 1.0 0.0
10.0 1.0 0.0
10.4 1.0 0.0
10.8 1.0 0.0
11.200000000000001 1.0 0.0
11.600000000000001 1.0 0.0
12.0 1.0 0.0
12.4 1.0 0.0
12.8 1.0 0.0
13.200000000000001 1.0 0.0
13.600000000000001 1.0 0.0
14.0 1.0 0.0
14.4 1.0 0.0
14.8 1.0 0.0
15.200000000000001 1.0 0.0
15.600000000000001 1.0 0.0
16.0 1.0 0.0
0.0 1.1 0.0
0.4 1.1 0.0
0.8 1.1 0.0
1.2000000000000002 1.1 0.0
1.6 1.1 0.0
[...]
POINT_DATA 861
SCALARS Disp float 2
LOOKUP_TABLE default
0.0 0.0
0.005954884582452504 -0.26550215775380126
0.007320572482049355 -0.5215858637655711
0.008113626159193258 -0.7765798912577632
0.00914963236723946 -1.0311954308968978
0.010854658226253205 -1.2849985872863368
0.013888263255291433 -1.537409308784076
0.01906136643524186 -1.7876960850802845
0.027330136758831208 -2.034942590851754
0.0397369459724789 -2.2779516587466215
0.0573198329230222 -2.515105645413383
0.08105104790400049 -2.744286420547942
0.1118084822268675 -2.962909215953164
0.15036642328996072 -3.1680446246402254
0.19739085550021707 -3.3565056154319803
0.2533710002303897 -3.524918031858445
0.31849731606252346 -3.66981240086
0.3925166305878559 -3.787771010051909
0.47461016031910747 -3.8756626235802476
0.5633457531019309 -3.9308915906442543
0.6564527073810339 -3.951701655711437
0.749559661660132 -3.9308915906441295
0.8382952544429362 -3.875662623579995
0.9203887841741544 -3.787771010051543
0.9944080986994458 -3.6698124008595436
1.0595344145315353 -3.5249180318579225
1.1155145592616629 -3.356505615431408
1.1625389914718742 -3.1680446246396192
1.201096932534922 -2.9629092159525428
1.2318543668577455 -2.744286420547326
1.255585581838686 -2.5151056454127896
1.2731684687891978 -2.2779516587460633
1.285575278002821 -2.034942590851238
1.293844048326392 -1.7876960850798194
1.29901715150633 -1.5374093087836658
1.3020507565353607 -1.28499858728599
1.3037557823943713 -1.0311954308966143
1.3047917886024167 -0.7765798912575461
1.30558484227956 -0.5215858637654193
1.3069505301791553 -0.2655021577537174
1.3129054147616044 0.0
0.06622500469106993 -0.0024682140341962997
0.07040544747381267 -0.26578150604088974
0.07111458548133606 -0.5216484470820568
0.07181645454768085 -0.7766707227576554
0.07272261595507012 -1.0313470613362845
0.07416882701072412 -1.2853398799184523
0.07677496451424806 -1.5381227985401977
0.08130662485611781 -1.7890002005313872
0.08866151262002334 -2.037081568743777
0.099791191076325 -2.281174356466653
0.11562182049973876 -2.519648638560016
0.137005769281058 -2.7503660507508485
0.16471778495778167 -2.9707206973718687
0.19946146712490853 -3.1777611698017894
0.24184466354730544 -3.368270562008273
0.292323697838595 -3.5388218416162314
0.3510947815030369 -3.6858594873106254
0.4179653330538421 -3.8058463192408882
0.4922347743215063 -3.895504758078434
0.5725386838057183 -3.9520661184880144
0.6564527073810188 -3.9734281980563453
0.7403667309563138 -3.952066118487887
0.8206706404405081 -3.8955047580781756
0.8949400817081432 -3.805846319240514
0.9618106332589127 -3.6858594873101582
1.0205817169233153 -3.538821841615698
1.071060751214564 -3.36827056200769
1.11344394763692 -3.177761169801173
1.1481876298040061 -2.9707206973712372
1.175899645480691 -2.7503660507502237
1.197283594261976 -2.5196486385594143
1.2131142236853614 -2.2811743564660882
1.2242439021416405 -2.037081568743256
1.2315987899055296 -1.7890002005309187
1.236130450247388 -1.5381227985397856
1.2387365877509056 -1.2853398799181044
1.2401827988065568 -1.0313470613360005
1.2410889602139454 -0.7766707227574382
1.24179082928029 -0.5216484470819048
1.2424999672878132 -0.2657815060408056
1.2466804100705504 -0.002468214034193766
0.13144938905996334 -0.004431983675928738
0.13452316859511732 -0.26592068803196695
0.13492835464314742 -0.5216806717620853
0.13550050426226867 -0.7767506104087658
0.1362872055702978 -1.0314673637188605
0.13750078978730815 -1.285609891486974
0.13969022674170398 -1.538714142028702
0.14358342020031511 -1.7901197961873687
0.15000838247187304 -2.0389560939783005
0.15982874228415833 -2.2840282940811245
0.1738641375246345 -2.5236904019581954
0.19285718750140773 -2.7557842602172187
0.21748159846469897 -2.9776880733017155
0.24835834878999088 -3.1864350034320528
0.2860415845629038 -3.378782502727224
0.3309563938401871 -3.551258844715581
0.38331568170799124 -3.700235539310101
0.44300375237116135 -3.822069981594248
0.5094262592155416 -3.913343588834727
0.5812845783110592 -3.9710779694032605
0.6564527073810039 -3.9929361121707574
0.7316208364509431 -3.97107796940313
0.8034791555464449 -3.9133435888344623
0.8699016623907996 -3.8220699815938666
0.9295897330539389 -3.7002355393096256
0.981949020921708 -3.5512588447150386
1.026863830198955 -3.378782502726631
1.064547065971831 -3.1864350034314266
1.0954238162970868 -2.9776880733010747
1.120048227260344 -2.755784260216585
1.1390412772370864 -2.523690401957586
1.1530766724775374 -2.284028294080554
1.1628970322898025 -2.038956093977775
1.1693219945613453 -1.790119796186897
1.1732151880199468 -1.5387141420282882
1.1754046249743373 -1.2856098914866252
1.1766182091913455 -1.0314673637185765
1.1774049104993742 -0.7767506104085485
1.1779770601184956 -0.5216806717619334
1.1783822461665254 -0.26592068803188235
1.181456025701674 -0.004431983675923491
0.19614480455092798 -0.006012124489500194
0.19847318985465312 -0.2660156598413818
0.1987198836466692 -0.5216983340225341
0.19916725525318651 -0.7768149047498734
0.1998385040410752 -1.03156471352349
0.20084730853296975 -1.2858169679481595
0.20264428787310562 -1.5391875492812406
0.20590688343352312 -1.7910558885152141
0.2113965129984064 -2.040562587526406
0.21988887094127693 -2.2865068503554684
0.2321019738381161 -2.527222768722667
0.2486730212585622 -2.760533209027518
0.2701789286942769 -2.983803220348054
0.2971568838898903 -3.194055550448938
0.3300964449125607 -3.3880291230518766
0.3693986049524962 -3.562216424428314
0.4152971035717158 -3.7129297014539953
0.46775159282177764 -3.8364342344655786
0.5262824261345009 -3.929171277939512
0.5897820460905671 -3.987975715899717
0.6564527073809895 -4.010334798744236
0.7231233686714069 -3.987975715899584
0.7866229886274585 -3.929171277939243
0.8451538219401595 -3.83643423446519
0.8976083111901945 -3.712929701453511
0.9435068098093835 -3.5622164244277634
0.9828089698492869 -3.3880291230512753
1.0157485308719247 -3.1940555504483035
1.0427264860675067 -2.9838032203474056
1.0642323935031919 -2.760533209026877
1.080803440923611 -2.5272227687220514
1.093016543820428 -2.286506850354892
1.1015089017632804 -2.040562587525877
1.1069985313281507 -1.7910558885147396
1.11026112688856 -1.539187549280825
1.1120581062286914 -1.2858169679478102
1.1130669107205846 -1.0315647135232056
1.113738159508473 -0.7768149047496564
1.1141855311149904 -0.5216983340223822
1.1144322249070062 -0.2660156598412969
1.1167606102107264 -0.006012124489492387
0.260538896608258 -0.007290415923663696
0.262308909298132 -0.26608932814832364
0.26246969029433526 -0.5217084604801949
0.2628121804111091 -0.7768646885694046
0.2633727043011702 -1.031643526494269
0.2642007014013092 -1.2859732718540446
0.2656441562406382 -1.5395513219660522
0.2682911537295434 -1.791811469464801
0.272851921320736 -2.041901087929049
0.2800108647833135 -2.2886071223833646
0.29038886490204974 -2.53024165961971
0.30452229194975383 -2.7646080779936253
0.32289080458330477 -2.989061164516828
0.34594918452566237 -3.2006173605856807
0.37412621686159125 -3.396002919064763
0.40778552466049883 -3.5716851521344197
0.447177482042251 -3.7239305889374297
0.4923393453164872 -3.8489258636165617
0.5429429417511693 -3.942989288948467
0.5981323414995606 -4.00279597754886
0.6564527073809752 -4.025683970137914
0.7147730732623855 -4.0027959775487245
0.7699624730107635 -3.9429892889481937
0.8205660694454262 -3.8489258636161683
0.8657279327196395 -3.723930588936939
0.9051198901013653 -3.5716851521338624
0.9387791979002448 -3.396002919064155
0.9669562302361459 -3.200617360585039
0.9900146101784765 -2.989061164516173
1.0083831228120022 -2.7646080779929774
1.0225165498596833 -2.5302416596190893
1.0328945499784004 -2.2886071223827837
1.0400534934409629 -2.041901087928516
1.0446142610321443 -1.7918114694643241
1.0472612585210423 -1.5395513219656354
1.048704713360368 -1.2859732718536947
1.0495327104605061 -1.0316435264939843
1.050093234350567 -0.7768646885691874
1.0504357244673408 -0.521708460480043
1.0505965054635442 -0.2660893281482384
1.0523665181534136 -0.007290415923653614
0.324734184853617 -0.008318453098106877
0.32606496215029745 -0.26614953521467777
0.32617593582906373 -0.5217157698597318
0.3264321306218534 -0.776901606662766
0.32688528674910733 -1.0317072332654456
0.327554868167367 -1.286089821025371
0.32868278094994563 -1.5398191290463663
0.3307568320132485 -1.792392788047453
0.33440069844029746 -2.0429746531650324
0.3402340335764796 -2.2903301217704306
0.34877828194215227 -2.5327465859146026
0.36047186403495135 -2.768008011515745
0.3757005174627334 -2.9934606085758237
0.39483536192276 -3.206118669368825
0.4182405684515901 -3.4027019303275954
0.44624813287192466 -3.579660135426462
0.47910580973644523 -3.7332273970204337
0.5169183779654002 -3.859531707097973
0.5595416871716612 -3.954794820171397
0.6064173414355236 -4.0155573245120895
0.6564527073809608 -4.039019057804971
0.7064880733263943 -4.015557324511953
0.7533637275902454 -3.95479482017112
0.7959870367964896 -3.8595317070975743
0.8337996050254255 -3.7332273970199377
0.8666572818899235 -3.579660135425898
0.8946648463102342 -3.4027019303269808
0.9180700528390414 -3.2061186693681774
0.9372048972990454 -2.993460608575163
0.9524335507268067 -2.7680080115150925
0.9641271328195866 -2.532746585913977
0.9726713811852434 -2.2903301217698457
0.9785047163214129 -2.042974653164497
0.9821485827484527 -1.7923927880469739
0.9842226338117502 -1.5398191290459484
0.9853505465943262 -1.286089821025021
0.9860201280125854 -1.031707233265161
0.9864732841398393 -0.7769016066625487
0.986729478932629 -0.5217157698595799
0.9868404526113951 -0.2661495352145923
0.988171229908072 -0.008318453098094878
0.38878426858499815 -0.009135683470336985
0.3897650533632459 -0.2661993475038043
0.3898439207413269 -0.5217226408746289
0.39002689427461834 -0.7769271344627947
0.39037468958919624 -1.0317577800602542
0.390902033785489 -1.2861759977160763
0.39175118802308256 -1.5400074054555777
0.3933024693573238 -1.7928146940155527
0.39607268307360455 -2.043790037581503
0.400598497374729 -2.291680493653023
0.4073245268518146 -2.5347411623627685
0.41659079107284863 -2.7707360439777213
0.4286910753273578 -2.997004569406121
0.4439141874021058 -3.210562314952959
0.4625594929521483 -3.408127918061935
0.4849171982127511 -3.5861413506335316
0.5112299054625865 -3.7408141465173963
0.5416542772213017 -3.8682385756145687
0.5762239423662499 -3.9645758755999063
0.6147185591126022 -4.026260163202584
0.6564527073809463 -4.0503554844014245
0.6981868556492874 -4.026260163202444
0.7366814723956303 -3.9645758755996265
0.7712511375405647 -3.868238575614166
0.8016755092992639 -3.7408141465168954
0.8279882165490812 -3.5861413506329627
0.8503459218096643 -3.4081279180613153
0.8689912273596885 -3.2105623149523064
0.884214339434419 -2.9970045694054557
0.8963146236889116 -2.7707360439770645
0.90558088790993 -2.5347411623621388
0.9123069173870032 -2.291680493652435
0.9168327316881179 -2.0437900375809646
0.9196029454043915 -1.792814694015072
0.9211542267386286 -1.5400074054551596
0.9220033809762206 -1.2861759977157259
0.9225307251725129 -1.0317577800599695
0.9228785204870907 -0.7769271344625776
0.9230614940203821 -0.5217226408744771
0.9231403613984629 -0.26619934750371865
0.9241211461767082 -0.009135683470323397
0.4527248440942377 -0.009773872478180694
0.4534268725999914 -0.2662410981514191
0.4534812972928262 -0.5217295734324178
0.45359839026468973 -0.7769425562160234
0.4538423322276557 -1.0317953080052493
0.45423419510073076 -1.2862391217748912
0.4548437110231878 -1.5401320872825413
0.4559241239672627 -1.7930973756646766
0.4578820586644329 -2.044362859402674
0.4611479250469144 -2.292667579621459
0.466084162498012 -2.536233055009532
0.47294832986612517 -2.7727995151027915
0.48194805732423646 -2.99970079017892
0.4932884803363748 -3.213955997898005
0.5071990917822315 -3.4122878522319637
0.5239283362771359 -3.591133543687402
0.543706775165932 -3.746690607961803
0.5667182758219792 -3.875035532635813
0.593147850294976 -3.9723108059194714
0.6231280587102812 -4.034884992149992
0.6564527073809313 -4.0596884102531074
0.6897773560515795 -4.034884992149851
0.7197575644668773 -3.972310805919189
0.7461871389398635 -3.875035532635406
0.7691986395958978 -3.7466906079612987
0.7889770784846801 -3.5911335436868286
0.8057063229795691 -3.4122878522313407
0.8196169344254127 -3.2139559978973486
0.8309573574375383 -2.999700790178251
0.8399570848956373 -2.7727995151021307
0.8468212522637387 -2.5362330550088985
0.8517574897148272 -2.2926675796208684
0.8550233560973016 -2.0443628594021344
0.8569812907944669 -1.793097375664195
0.858061703738539 -1.5401320872821225
0.8586712196609951 -1.2862391217745406
0.8590630825340699 -1.0317953080049644
0.8593070244970358 -0.7769425562158061
0.8594241174688991 -0.5217295734322659
0.8594785421617339 -0.2662410981513334
0.8601805706674858 -0.00977387247816587
0.5165778818020654 -0.010262795960350615
0.5170667910914192 -0.26627688070791783
0.517095128690554 -0.5217357400792045
0.5171499084890888 -0.7769488901674282
0.5172924189405447 -1.0318191597769677
0.517547114664546 -1.2862831597861228
0.5179449042988562 -1.5402099031025736
0.5186163510578021 -1.7932651315974568
0.5198340950248613 -2.0447177419356146
0.5219127641985617 -2.2933101554830104
0.5251150176127871 -2.5372359334749763
0.5296207372107465 -2.7742111813352395
0.5355602296137906 -3.0015625048562704
0.5430623348255864 -3.216313426938868
0.5522831441030238 -3.415194205591009
0.5634176152379766 -3.5946470967763386
0.5766861791798117 -3.7508647004531492
0.5922992658366615 -3.8799176562656235
0.6105066132908337 -3.9779701725159704
0.6317617498549386 -4.041389675314884
0.656452707380916 -4.066990221314862
0.6811436649068922 -4.041389675314742
0.7023988014709925 -3.9779701725156853
0.7206061489251567 -3.8799176562652145
0.7362192355819971 -3.7508647004526425
0.7494877995238229 -3.5946470967757627
0.7606222706587654 -3.415194205590383
0.7698430799361943 -3.2163134269382097
0.7773451851479825 -3.0015625048555994
0.7832846775510187 -2.7742111813345764
0.7877903971489706 -2.5372359334743417
0.7909926505631899 -2.2933101554824185
0.7930713197368859 -2.0447177419350737
0.794289063703942 -1.7932651315969745
0.7949605104628864 -1.5402099031021546
0.7953583000971962 -1.286283159785772
0.7956129958211973 -1.0318191597766828
0.7957555062726531 -0.7769488901672108
0.7958102860711879 -0.5217357400790527
0.7958386236703225 -0.2662768807078321
0.7963275329596751 -0.010262795960334819
0.5803590766505944 -0.01063225412350869
0.5806946998047513 -0.2663093326051722
0.5806919652362738 -0.5217393331717035
0.5806855894974232 -0.7769468926040577
0.5807294855170151 -1.0318290720908736
0.5808433148743025 -1.2863082077148476
0.5810390248734574 -1.5402536239405789
0.5813612882761311 -1.7933473180443693
0.5819257663589036 -2.044890465918826
0.5829118411018449 -2.2936406946539813
0.5844635104599332 -2.537776276904547
0.586679459621593 -2.7749937533036784
0.5896155283376474 -3.0026113655293214
0.5933343969384214 -3.2176570854588387
0.5979229719379396 -3.4168688383244135
0.6035109549639988 -3.5966999537116653
0.6102933672165718 -3.7533516156261553
0.6185285146658179 -3.8828968864439304
0.628516804784057 -3.9815301716250597
0.6407973910218083 -4.045705308947234
0.6564527073809001 -4.072200879885302
0.6721080237399918 -4.045705308947091
0.6843886099777409 -3.9815301716247737
0.6943769000959749 -3.8828968864435196
0.7026120475452156 -3.753351615625647
0.7093944597977843 -3.596699953711087
0.7149824428238384 -3.4168688383237855
0.7195710178233534 -3.2176570854581787
0.7232898864241241 -3.002611365528649
0.7262259551401752 -2.774993753303014
0.7284419043018315 -2.537776276903911
0.7299935736599173 -2.293640694653388
0.730979648402857 -2.0448904659182845
0.7315441264856282 -1.7933473180438868
0.7318663898883013 -1.5402536239401599
0.732062099887456 -1.2863082077144967
0.7321759292447434 -1.0318290720905887
0.7322198252643352 -0.7769468926038402
0.7322134495254846 -0.5217393331715516
0.732210714957007 -0.26630933260508655
0.7325463381111632 -0.01063225412349221
0.6440857709882573 -0.010908127159456871
0.6443133146867555 -0.26634146946365383
0.6442768859717684 -0.5217384453468565
0.6442099703505223 -0.776937037923562
0.6441577854162035 -1.031825152164991
0.64413101471398 -1.2863134243252432
0.6441206839584204 -1.5402673603107362
0.6441170107980471 -1.7933719099217977
0.6441156781733279 -2.044935620123287
0.6441155894108896 -2.2937240498763884
0.6441157150088964 -2.5379144262871423
0.6441143390691099 -2.775201009650147
0.6441054946392684 -3.002898573828568
0.6440864971989049 -3.2180362993600515
0.6440728428785251 -3.4173591100469265
0.644132123392899 -3.59733434792909
0.6444299368486287 -3.7541862042820284
0.6452790053758221 -3.8840121658499167
0.6471146281716904 -3.9830215377796145
0.6504217715183073 -4.047765916650435
0.6564527073808838 -4.075218791288652
0.6624836432434612 -4.047765916650292
0.6657907865900773 -3.983021537779328
0.6676264093859441 -3.8840121658495046
0.6684754779131368 -3.7541862042815204
0.6687732913688675 -3.597334347928512
0.668832571883242 -3.4173591100462986
0.6688189175628634 -3.218036299359391
0.6687999201225017 -3.002898573827895
0.6687910756926615 -2.7752010096494826
0.6687896997528762 -2.5379144262865063
0.6687898253508839 -2.293724049875795
0.6687897365884463 -2.0449356201227453
0.6687884039637275 -1.7933719099213155
0.6687847308033542 -1.540267360310317
0.6687744000477946 -1.2863134243248924
0.6687476293455713 -1.0318251521647062
0.6686954444112526 -0.7769370379233446
0.6686285287900066 -0.5217384453467045
0.6685921000750193 -0.2663414694635683
0.6688196437735171 -0.010908127159439951
0.7077691277190913 -0.011115747896175835
0.7079218304217625 -0.26637383570644096
0.7078542271326359 -0.5217324122674069
0.7077281766069313 -0.7769194919822684
0.7075826205174062 -1.0318077973550077
0.7074174293306114 -1.2862985770609243
0.7072015936122373 -1.540251082136279
0.70687180708248 -1.7933465716307846
0.7063051084441213 -2.044890285784564
0.7053192602937868 -2.293640704813269
0.7037681599423556 -2.537776183077834
0.7015479971279239 -2.7749914222267344
0.6985934794430853 -3.00260468023334
0.6948377250514113 -3.2176477033340034
0.690226214164135 -3.416873447813939
0.6847627174892399 -3.596768726756774
0.6785685648769163 -3.753590209298541
0.671946598448155 -3.8834790477823087
0.6653734619755574 -3.982649978780275
0.6595365968694805 -4.047686627174662
0.6564527073808673 -4.07614026806251
0.6533688178922534 -4.047686627174519
0.6475319527861768 -3.982649978779989
0.6409588163135828 -3.883479047781898
0.6343368498848271 -3.7535902092980336
0.6281426972725104 -3.5967687267561965
0.6226792005976209 -3.416873447813311
0.6180676897103503 -3.2176477033333444
0.6143119353186828 -3.0026046802326682
0.6113574176338503 -2.774991422226071
0.6091372548194243 -2.5377761830771983
0.6075861544679981 -2.2936407048126757
0.6066003063176667 -2.0448902857840228
0.6060336076793097 -1.793346571630302
0.6057038211495532 -1.5402510821358595
0.6054879854311797 -1.2862985770605733
0.6053227942443853 -1.0318077973547228
0.6051772381548601 -0.7769194919820509
0.6050511876291556 -0.5217324122672548
0.604983584340029 -0.2663738357063556
0.6051362870427 -0.011115747896158651
0.7714208594267566 -0.01127413761916787
0.7715232036834568 -0.26640468140883455
0.771427788242836 -0.5217216137336116
0.7712455513181704 -0.7768944162525154
0.771009998809025 -1.0317776148004798
0.7707100812337084 -1.2862641205421106
0.7702927326389193 -1.540204655423712
0.7696144002190286 -1.7932634531164862
0.7683958864880683 -2.0447174680702322
0.7663185506083273 -2.2933103449322276
0.7631162187987525 -2.5372353528729756
0.7586054331712682 -2.774206146224473
0.7526496592612711 -3.0015489952895367
0.7451171772628592 -3.216295185812356
0.7358822044512893 -3.415205226713184
0.7248747944631087 -3.5947880756928687
0.7121661034305583 -3.7513412894925913
0.6980363115592313 -3.8810579437616184
0.6830416689289928 -3.980210299054048
0.6683671854160409 -4.045582686982758
0.6564527073808512 -4.075140623693237
0.6445382293456615 -4.045582686982615
0.6298637458327115 -3.980210299053763