# vtk DataFile Version 3.0
Some data
ASCII
DATASET UNSTRUCTURED_GRID
POINTS 861 float
0.0 0.0 0.0
0.4 0.0 0.0
0.8 0.0 0.0
1.2000000000000002 0.0 0.0
1.6 0.0 0.0
2.0 0.0 0.0
2.4000000000000004 0.0 0.0
2.8000000000000003 0.0 0.0
3.2 0.0 0.0
3.6 0.0 0.0
4.0 0.0 0.0
4.4 0.0 0.0
4.800000000000001 0.0 0.0
5.2 0.0 0.0
5.6000000000000005 0.0 0.0
6.0 0.0 0.0
6.4 0.0 0.0
6.800000000000001 0.0 0.0
7.2 0.0 0.0
7.6000000000000005 0.0 0.0
8.0 0.0 0.0
8.4 0.0 0.0
8.8 0.0 0.0
9.200000000000001 0.0 0.0
9.600000000000001 0.0 0.0
10.0 0.0 0.0
10.4 0.0 0.0
10.8 0.0 0.0
11.200000000000001 0.0 0.0
11.600000000000001 0.0 0.0
12.0 0.0 0.0
12.4 0.0 0.0
12.8 0.0 0.0
13.200000000000001 0.0 0.0
13.600000000000001 0.0 0.0
14.0 0.0 0.0
14.4 0.0 0.0
14.8 0.0 0.0
15.200000000000001 0.0 0.0
15.600000000000001 0.0 0.0
16.0 0.0 0.0
0.0 0.1 0.0
0.4 0.1 0.0
0.8 0.1 0.0
1.2000000000000002 0.1 0.0
1.6 0.1 0.0
2.0 0.1 0.0
2.4000000000000004 0.1 0.0
2.8000000000000003 0.1 0.0
3.2 0.1 0.0
3.6 0.1 0.0
4.0 0.1 0.0
4.4 0.1 0.0
4.800000000000001 0.1 0.0
5.2 0.1 0.0
5.6000000000000005 0.1 0.0
6.0 0.1 0.0
6.4 0.1 0.0
6.800000000000001 0.1 0.0
7.2 0.1 0.0
7.6000000000000005 0.1 0.0
8.0 0.1 0.0
8.4 0.1 0.0
8.8 0.1 0.0
9.200000000000001 0.1 0.0
9.600000000000001 0.1 0.0
10.0 0.1 0.0
10.4 0.1 0.0
10.8 0.1 0.0
11.200000000000001 0.1 0.0
11.600000000000001 0.1 0.0
12.0 0.1 0.0
12.4 0.1 0.0
12.8 0.1 0.0
13.200000000000001 0.1 0.0
13.600000000000001 0.1 0.0
14.0 0.1 0.0
14.4 0.1 0.0
14.8 0.1 0.0
15.200000000000001 0.1 0.0
15.600000000000001 0.1 0.0
16.0 0.1 0.0
0.0 0.2 0.0
0.4 0.2 0.0
0.8 0.2 0.0
1.2000000000000002 0.2 0.0
1.6 0.2 0.0
2.0 0.2 0.0
2.4000000000000004 0.2 0.0
2.8000000000000003 0.2 0.0
3.2 0.2 0.0
3.6 0.2 0.0
4.0 0.2 0.0
4.4 0.2 0.0
4.800000000000001 0.2 0.0
5.2 0.2 0.0
5.6000000000000005 0.2 0.0
6.0 0.2 0.0
6.4 0.2 0.0
6.800000000000001 0.2 0.0
7.2 0.2 0.0
7.6000000000000005 0.2 0.0
8.0 0.2 0.0
8.4 0.2 0.0
8.8 0.2 0.0
9.200000000000001 0.2 0.0
9.600000000000001 0.2 0.0
10.0 0.2 0.0
10.4 0.2 0.0
10.8 0.2 0.0
11.200000000000001 0.2 0.0
11.600000000000001 0.2 0.0
12.0 0.2 0.0
12.4 0.2 0.0
12.8 0.2 0.0
13.200000000000001 0.2 0.0
13.600000000000001 0.2 0.0
14.0 0.2 0.0
14.4 0.2 0.0
14.8 0.2 0.0
15.200000000000001 0.2 0.0
15.600000000000001 0.2 0.0
16.0 0.2 0.0
0.0 0.30000000000000004 0.0
0.4 0.30000000000000004 0.0
0.8 0.30000000000000004 0.0
1.2000000000000002 0.30000000000000004 0.0
1.6 0.30000000000000004 0.0
2.0 0.30000000000000004 0.0
2.4000000000000004 0.30000000000000004 0.0
2.8000000000000003 0.30000000000000004 0.0
3.2 0.30000000000000004 0.0
3.6 0.30000000000000004 0.0
4.0 0.30000000000000004 0.0
4.4 0.30000000000000004 0.0
4.800000000000001 0.30000000000000004 0.0
5.2 0.30000000000000004 0.0
5.6000000000000005 0.30000000000000004 0.0
6.0 0.30000000000000004 0.0
6.4 0.30000000000000004 0.0
6.800000000000001 0.30000000000000004 0.0
7.2 0.30000000000000004 0.0
7.6000000000000005 0.30000000000000004 0.0
8.0 0.30000000000000004 0.0
8.4 0.30000000000000004 0.0
8.8 0.30000000000000004 0.0
9.200000000000001 0.30000000000000004 0.0
9.600000000000001 0.30000000000000004 0.0
10.0 0.30000000000000004 0.0
10.4 0.30000000000000004 0.0
10.8 0.30000000000000004 0.0
11.200000000000001 0.30000000000000004 0.0
11.600000000000001 0.30000000000000004 0.0
12.0 0.30000000000000004 0.0
12.4 0.30000000000000004 0.0
12.8 0.30000000000000004 0.0
13.200000000000001 0.30000000000000004 0.0
13.600000000000001 0.30000000000000004 0.0
14.0 0.30000000000000004 0.0
14.4 0.30000000000000004 0.0
14.8 0.30000000000000004 0.0
15.200000000000001 0.30000000000000004 0.0
15.600000000000001 0.30000000000000004 0.0
16.0 0.30000000000000004 0.0
0.0 0.4 0.0
0.4 0.4 0.0
0.8 0.4 0.0
1.2000000000000002 0.4 0.0
1.6 0.4 0.0
2.0 0.4 0.0
2.4000000000000004 0.4 0.0
2.8000000000000003 0.4 0.0
3.2 0.4 0.0
3.6 0.4 0.0
4.0 0.4 0.0
4.4 0.4 0.0
4.800000000000001 0.4 0.0
5.2 0.4 0.0
5.6000000000000005 0.4 0.0
6.0 0.4 0.0
6.4 0.4 0.0
6.800000000000001 0.4 0.0
7.2 0.4 0.0
7.6000000000000005 0.4 0.0
8.0 0.4 0.0
8.4 0.4 0.0
8.8 0.4 0.0
9.200000000000001 0.4 0.0
9.600000000000001 0.4 0.0
10.0 0.4 0.0
10.4 0.4 0.0
10.8 0.4 0.0
11.200000000000001 0.4 0.0
11.600000000000001 0.4 0.0
12.0 0.4 0.0
12.4 0.4 0.0
12.8 0.4 0.0
13.200000000000001 0.4 0.0
13.600000000000001 0.4 0.0
14.0 0.4 0.0
14.4 0.4 0.0
14.8 0.4 0.0
15.200000000000001 0.4 0.0
15.600000000000001 0.4 0.0
16.0 0.4 0.0
0.0 0.5 0.0
0.4 0.5 0.0
0.8 0.5 0.0
1.2000000000000002 0.5 0.0
1.6 0.5 0.0
2.0 0.5 0.0
2.4000000000000004 0.5 0.0
2.8000000000000003 0.5 0.0
3.2 0.5 0.0
3.6 0.5 0.0
4.0 0.5 0.0
4.4 0.5 0.0
4.800000000000001 0.5 0.0
5.2 0.5 0.0
5.6000000000000005 0.5 0.0
6.0 0.5 0.0
6.4 0.5 0.0
6.800000000000001 0.5 0.0
7.2 0.5 0.0
7.6000000000000005 0.5 0.0
8.0 0.5 0.0
8.4 0.5 0.0
8.8 0.5 0.0
9.200000000000001 0.5 0.0
9.600000000000001 0.5 0.0
10.0 0.5 0.0
10.4 0.5 0.0
10.8 0.5 0.0
11.200000000000001 0.5 0.0
11.600000000000001 0.5 0.0
12.0 0.5 0.0
12.4 0.5 0.0
12.8 0.5 0.0
13.200000000000001 0.5 0.0
13.600000000000001 0.5 0.0
14.0 0.5 0.0
14.4 0.5 0.0
14.8 0.5 0.0
15.200000000000001 0.5 0.0
15.600000000000001 0.5 0.0
16.0 0.5 0.0
0.0 0.6000000000000001 0.0
0.4 0.6000000000000001 0.0
0.8 0.6000000000000001 0.0
1.2000000000000002 0.6000000000000001 0.0
1.6 0.6000000000000001 0.0
2.0 0.6000000000000001 0.0
2.4000000000000004 0.6000000000000001 0.0
2.8000000000000003 0.6000000000000001 0.0
3.2 0.6000000000000001 0.0
3.6 0.6000000000000001 0.0
4.0 0.6000000000000001 0.0
4.4 0.6000000000000001 0.0
4.800000000000001 0.6000000000000001 0.0
5.2 0.6000000000000001 0.0
5.6000000000000005 0.6000000000000001 0.0
6.0 0.6000000000000001 0.0
6.4 0.6000000000000001 0.0
6.800000000000001 0.6000000000000001 0.0
7.2 0.6000000000000001 0.0
7.6000000000000005 0.6000000000000001 0.0
8.0 0.6000000000000001 0.0
8.4 0.6000000000000001 0.0
8.8 0.6000000000000001 0.0
9.200000000000001 0.6000000000000001 0.0
9.600000000000001 0.6000000000000001 0.0
10.0 0.6000000000000001 0.0
10.4 0.6000000000000001 0.0
10.8 0.6000000000000001 0.0
11.200000000000001 0.6000000000000001 0.0
11.600000000000001 0.6000000000000001 0.0
12.0 0.6000000000000001 0.0
12.4 0.6000000000000001 0.0
12.8 0.6000000000000001 0.0
13.200000000000001 0.6000000000000001 0.0
13.600000000000001 0.6000000000000001 0.0
14.0 0.6000000000000001 0.0
14.4 0.6000000000000001 0.0
14.8 0.6000000000000001 0.0
15.200000000000001 0.6000000000000001 0.0
15.600000000000001 0.6000000000000001 0.0
16.0 0.6000000000000001 0.0
0.0 0.7000000000000001 0.0
0.4 0.7000000000000001 0.0
0.8 0.7000000000000001 0.0
1.2000000000000002 0.7000000000000001 0.0
1.6 0.7000000000000001 0.0
2.0 0.7000000000000001 0.0
2.4000000000000004 0.7000000000000001 0.0
2.8000000000000003 0.7000000000000001 0.0
3.2 0.7000000000000001 0.0
3.6 0.7000000000000001 0.0
4.0 0.7000000000000001 0.0
4.4 0.7000000000000001 0.0
4.800000000000001 0.7000000000000001 0.0
5.2 0.7000000000000001 0.0
5.6000000000000005 0.7000000000000001 0.0
6.0 0.7000000000000001 0.0
6.4 0.7000000000000001 0.0
6.800000000000001 0.7000000000000001 0.0
7.2 0.7000000000000001 0.0
7.6000000000000005 0.7000000000000001 0.0
8.0 0.7000000000000001 0.0
8.4 0.7000000000000001 0.0
8.8 0.7000000000000001 0.0
9.200000000000001 0.7000000000000001 0.0
9.600000000000001 0.7000000000000001 0.0
10.0 0.7000000000000001 0.0
10.4 0.7000000000000001 0.0
10.8 0.7000000000000001 0.0
11.200000000000001 0.7000000000000001 0.0
11.600000000000001 0.7000000000000001 0.0
12.0 0.7000000000000001 0.0
12.4 0.7000000000000001 0.0
12.8 0.7000000000000001 0.0
13.200000000000001 0.7000000000000001 0.0
13.600000000000001 0.7000000000000001 0.0
14.0 0.7000000000000001 0.0
14.4 0.7000000000000001 0.0
14.8 0.7000000000000001 0.0
15.200000000000001 0.7000000000000001 0.0
15.600000000000001 0.7000000000000001 0.0
16.0 0.7000000000000001 0.0
0.0 0.8 0.0
0.4 0.8 0.0
0.8 0.8 0.0
1.2000000000000002 0.8 0.0
1.6 0.8 0.0
2.0 0.8 0.0
2.4000000000000004 0.8 0.0
2.8000000000000003 0.8 0.0
3.2 0.8 0.0
3.6 0.8 0.0
4.0 0.8 0.0
4.4 0.8 0.0
4.800000000000001 0.8 0.0
5.2 0.8 0.0
5.6000000000000005 0.8 0.0
6.0 0.8 0.0
6.4 0.8 0.0
6.800000000000001 0.8 0.0
7.2 0.8 0.0
7.6000000000000005 0.8 0.0
8.0 0.8 0.0
8.4 0.8 0.0
8.8 0.8 0.0
9.200000000000001 0.8 0.0
9.600000000000001 0.8 0.0
10.0 0.8 0.0
10.4 0.8 0.0
10.8 0.8 0.0
11.200000000000001 0.8 0.0
11.600000000000001 0.8 0.0
12.0 0.8 0.0
12.4 0.8 0.0
12.8 0.8 0.0
13.200000000000001 0.8 0.0
13.600000000000001 0.8 0.0
14.0 0.8 0.0
14.4 0.8 0.0
14.8 0.8 0.0
15.200000000000001 0.8 0.0
15.600000000000001 0.8 0.0
16.0 0.8 0.0
0.0 0.9 0.0
0.4 0.9 0.0
0.8 0.9 0.0
1.2000000000000002 0.9 0.0
1.6 0.9 0.0
2.0 0.9 0.0
2.4000000000000004 0.9 0.0
2.8000000000000003 0.9 0.0
3.2 0.9 0.0
3.6 0.9 0.0
4.0 0.9 0.0
4.4 0.9 0.0
4.800000000000001 0.9 0.0
5.2 0.9 0.0
5.6000000000000005 0.9 0.0
6.0 0.9 0.0
6.4 0.9 0.0
6.800000000000001 0.9 0.0
7.2 0.9 0.0
7.6000000000000005 0.9 0.0
8.0 0.9 0.0
8.4 0.9 0.0
8.8 0.9 0.0
9.200000000000001 0.9 0.0
9.600000000000001 0.9 0.0
10.0 0.9 0.0
10.4 0.9 0.0
10.8 0.9 0.0
11.200000000000001 0.9 0.0
11.600000000000001 0.9 0.0
12.0 0.9 0.0
12.4 0.9 0.0
12.8 0.9 0.0
13.200000000000001 0.9 0.0
13.600000000000001 0.9 0.0
14.0 0.9 0.0
14.4 0.9 0.0
14.8 0.9 0.0
15.200000000000001 0.9 0.0
15.600000000000001 0.9 0.0
16.0 0.9 0.0
0.0 1.0 0.0
0.4 1.0 0.0
0.8 1.0 0.0
1.2000000000000002 1.0 0.0
1.6 1.0 0.0
2.0 1.0 0.0
2.4000000000000004 1.0 0.0
2.8000000000000003 1.0 0.0
3.2 1.0 0.0
3.6 1.0 0.0
4.0 1.0 0.0
4.4 1.0 0.0
4.800000000000001 1.0 0.0
5.2 1.0 0.0
5.6000000000000005 1.0 0.0
6.0 1.0 0.0
6.4 1.0 0.0
6.800000000000001 1.0 0.0
7.2 1.0 0.0
7.6000000000000005 1.0 0.0
8.0 1.0 0.0
8.4 1.0 0.0
8.8 1.0 0.0
9.200000000000001 1.0 0.0
9.600000000000001 1.0 0.0
10.0 1.0 0.0
10.4 1.0 0.0
10.8 1.0 0.0
11.200000000000001 1.0 0.0
11.600000000000001 1.0 0.0
12.0 1.0 0.0
12.4 1.0 0.0
12.8 1.0 0.0
13.200000000000001 1.0 0.0
13.600000000000001 1.0 0.0
14.0 1.0 0.0
14.4 1.0 0.0
14.8 1.0 0.0
15.200000000000001 1.0 0.0
15.600000000000001 1.0 0.0
16.0 1.0 0.0
0.0 1.1 0.0
0.4 1.1 0.0
0.8 1.1 0.0
1.2000000000000002 1.1 0.0
1.6 1.1 0.0
[...]
POINT_DATA 861
SCALARS Disp float 2
LOOKUP_TABLE default
0.0 0.0
0.0028934042992823073 -0.08723067958665699
0.003774159181331126 -0.16911915797534985
0.00445863081979519 -0.2505653824496486
0.005257959156495471 -0.3317252036426959
0.006275576058856656 -0.4124792510602546
0.007699261286814936 -0.49265919207443964
0.009643865476548592 -0.5720993236040712
0.012232748303863405 -0.6505878948638265
0.01561474132835942 -0.7278434030779921
0.019983096532686755 -0.8034853411379625
0.025628079987385467 -0.8769930640478099
0.03298319089518527 -0.9476681889444786
0.04260725059847242 -1.0146355074915916
0.055161962645618956 -1.076858440000147
0.07132106516256047 -1.1331518088388035
0.09162101952200391 -1.182189192516751
0.11627690041253383 -1.222525453138583
0.14502430139167455 -1.2527075768404117
0.17706382197863949 -1.2714995712831758
0.21107610065645568 -1.278107967243872
0.24508837933427166 -1.2714995712831536
0.27712789992123366 -1.2527075768403646
0.3058753009003693 -1.2225254531385152
0.3305311817908927 -1.1821891925166663
0.35083113615032996 -1.1331518088387085
0.3669902386672657 -1.0768584400000425
0.3795449507144058 -1.0146355074914801
0.3891690104176858 -0.9476681889443637
0.39652412132547854 -0.8769930640476945
0.4021691047801706 -0.8034853411378499
0.4065374599844923 -0.7278434030778846
0.40991945300898364 -0.6505878948637254
0.4125083358362944 -0.5720993236039784
0.41445294002602484 -0.4926591920743559
0.4158766252539807 -0.4124792510601826
0.41689424215634074 -0.3317252036426356
0.4176935704930405 -0.25056538244960125
0.4183780421315043 -0.16911915797531493
0.41925879701355256 -0.08723067958663562
0.42215220131283354 0.0
0.02178401446750902 -0.0013856237013332886
0.023660886167518873 -0.08726232762811083
0.024150467832512634 -0.169195155847042
0.024779140034894544 -0.25063755766101314
0.025495784723620428 -0.3318137751284788
0.026394634938125165 -0.4126183264799164
0.027653282350658465 -0.49288588214926454
0.02938661665449029 -0.5724373684176768
0.031704573025634945 -0.6510681481607287
0.03473371748967501 -0.7285028100222087
0.0386419838237416 -0.804376902381087
0.04367987261482408 -0.8781998997428602
0.050226315413971274 -0.9493101956411862
0.058802309743146944 -1.0168624716953605
0.07002397192570772 -1.0798383149698287
0.08452575128277828 -1.1370400750642697
0.10281144625574337 -1.1870862677223288
0.12508677878420088 -1.2284340488155436
0.15112774794502282 -1.259505993328512
0.18021480731093145 -1.2789386724968017
0.211076100656453 -1.2857941726571465
0.2419373940019741 -1.278938672496779
0.2710244533678801 -1.2595059933284645
0.2970654225286978 -1.2284340488154748
0.3193407550571499 -1.187086267722243
0.3376264500301097 -1.1370400750641734
0.35212822938717486 -1.0798383149697228
0.36334989156972985 -1.0168624716952477
0.37192588589889924 -0.9493101956410699
0.37847232869804015 -0.8781998997427433
0.3835102174891167 -0.804376902380973
0.38741848382317806 -0.7285028100221
0.39044762828721397 -0.6510681481606266
0.3927655846583549 -0.5724373684175832
0.3944989189621838 -0.4928858821491802
0.39575756637471504 -0.4126183264798441
0.39665641658921885 -0.33181377512841836
0.39737306127794436 -0.25063755766096574
0.398001733480326 -0.16919515584700706
0.3984913151453199 -0.0872623276280895
0.40036818684532743 -0.001385623701331699
0.042966694830944466 -0.0024660243918858613
0.044283009945201984 -0.08726519551802943
0.04456151619591693 -0.16924061166972393
0.04507332214219283 -0.2507056492088146
0.04571415774153341 -0.3318906295299179
0.046506881090021504 -0.41273202374985896
0.047594677275352666 -0.49307515506456795
0.04911426906773738 -0.5727255300936857
0.05115850893617314 -0.6514818884264524
0.053834914709952206 -0.729073910495938
0.05728603513450199 -0.8051514028842668
0.06172628808081536 -0.8792488669063823
0.06748244742300494 -0.9507399238163179
0.07501838831016205 -1.0188131495014725
0.08491006139623138 -1.0824662163647834
0.09774237742535659 -1.1404905350320615
0.11398661498717162 -1.191454310326142
0.1338533843169207 -1.2337271699828842
0.15717127993830562 -1.2656199635445304
0.18329565118761343 -1.2856409731547305
0.21107610065645063 -1.2927284978037341
0.2388565501252872 -1.2856409731547076
0.2649809213745926 -1.265619963544482
0.2882988169959738 -1.2337271699828143
0.3081655863257185 -1.191454310326055
0.32440982388752887 -1.1404905350319643
0.33724213991664925 -1.0824662163646763
0.3471338130027133 -1.0188131495013586
0.35466975388986494 -0.9507399238162001
0.36042591323204903 -0.8792488669062641
0.36486616617835704 -0.8051514028841515
0.36831728660290225 -0.7290739104958285
0.37099369237667756 -0.6514818884263496
0.37303793224511 -0.5727255300935914
0.37455752403749215 -0.4930751550644831
0.37564532022282154 -0.4127320237497864
0.376438043571309 -0.33189062952985743
0.3770788791706492 -0.25070564920876715
0.377590685116925 -0.16924061166968904
0.37786919136764013 -0.08726519551800802
0.3791855064818953 -0.002466024391882707
0.06383025204438379 -0.0033274993094411145
0.06479529825768886 -0.08727123754107115
0.06495943213426893 -0.16926422113524278
0.06535330909190157 -0.25076194412293845
0.06590737197980412 -0.3319606650344255
0.0666072596380969 -0.4128243760550192
0.06753074093478342 -0.49322622043136194
0.06883146658959029 -0.5729651673878361
0.07060013844109096 -0.6518302060459726
0.07292405310646001 -0.7295585725566727
0.07592223612609089 -0.8058112330034335
0.07977313828030749 -0.8801447514780151
0.08475447566204496 -0.9519635386823114
0.09127108463165357 -1.0204905208407913
0.09983738398830691 -1.0847426480424145
0.11099472203980919 -1.1435001117552348
0.12518140670926048 -1.1952877102403883
0.1426149400030851 -1.2383996384120777
0.16318259700539559 -1.271045180550777
0.18634027386832017 -1.2916131643759763
0.21107610065644847 -1.2989297995392854
0.23581192744457607 -1.2916131643759532
0.2589696043074984 -1.271045180550728
0.2795372613098057 -1.2383996384120066
0.29697079460362663 -1.1952877102403008
0.31115747927307374 -1.1435001117551362
0.3223148173245717 -1.0847426480423064
0.33088111668122044 -1.0204905208406763
0.33739772565082427 -0.9519635386821924
0.342379063032557 -0.8801447514778957
0.34622996518676885 -0.8058112330033173
0.3492281482063958 -0.7295585725565624
0.3515520628717615 -0.6518302060458693
0.3533207347232592 -0.5729651673877413
0.35462146037806386 -0.49322622043127684
0.3555449416747491 -0.4128243760549465
0.35624482933304136 -0.331960665034365
0.3567988922209436 -0.25076194412289093
0.3571927691785762 -0.16926422113520792
0.3573569030551564 -0.0872712375410496
0.3583219492684594 -0.0033274993094365886
0.08450490040261284 -0.004017596235373316
0.08522502805149881 -0.08728747938659906
0.0853264451242319 -0.16927520765362586
0.08561784615339976 -0.25080473125802594
0.08607857321114339 -0.3320220153449753
0.08668384783338914 -0.412903216164842
0.08746722565147752 -0.49334266540266514
0.08854387902887587 -0.5731565399735296
0.0900352816430105 -0.6521150199372515
0.09200751244060802 -0.7299589690203208
0.09455665980289797 -0.8063599597562121
0.09782808836241719 -0.880891743960247
0.10204953801514745 -0.9529868984498546
0.10756438675774369 -1.0219008097527136
0.11482581440642123 -1.0866697535240832
0.12431167871532962 -1.1460678930059698
0.136430055989637 -1.1985829684582185
0.15140956782856935 -1.2424456600657643
0.16919841458230364 -1.2757769934567524
0.18937391997605346 -1.29685835935521
0.21107610065644647 -1.3044078875927883
0.23277828133683864 -1.2968583593551863
0.2529537867305863 -1.275776993456703
0.2707426334843179 -1.2424456600656928
0.28572214532324686 -1.1985829684581302
0.2978405225975506 -1.1460678930058703
0.3073263869064553 -1.0866697535239744
0.31458781455512896 -1.0219008097525977
0.32010266329772114 -0.9529868984497347
0.3243241129504473 -0.8808917439601269
0.3275955415099625 -0.8063599597560951
0.33014468887224907 -0.7299589690202097
0.3321169196698437 -0.6521150199371474
0.33360832228397586 -0.5731565399734343
0.33468497566137234 -0.4933426654025798
0.33546835347945986 -0.41290321616476927
0.33607362810170516 -0.33202201534491466
0.3365343551594485 -0.2508047312579784
0.3368257561886164 -0.16927520765359103
0.33692717326134947 -0.08728747938657737
0.33764730091023376 -0.004017596235367642
0.10505335426488903 -0.004567997904263961
0.10559452048774 -0.08731378200517813
0.10565835108775001 -0.16927973201699467
0.1058640734021294 -0.250834948104125
0.10623030863709511 -0.3320727103862809
0.10673542236156473 -0.4129709192750515
0.10739190378196943 -0.4934337700027454
0.10826595960455435 -0.573299093477796
0.10947083645014283 -0.6523382390908061
0.11109215035242942 -0.7302780757980601
0.11319659887087401 -0.8068009186734051
0.11589734173152214 -0.8814951733452782
0.11937537473189479 -0.953816539281141
0.12391168764936501 -1.0230503260127208
0.12988490570077735 -1.0882536389463164
0.13771715050689096 -1.1481962681886577
0.1477725849314674 -1.2013382187431705
0.16027847657030775 -1.245859729062551
0.17525601089713905 -1.279809434434178
0.1924198267946999 -1.3013750328318372
0.2110761006564444 -1.3091665443502816
0.22973237451818806 -1.301375032831813
0.246896190415747 -1.2798094344341282
0.26187372474257586 -1.2458597290624789
0.2743796163814132 -1.2013382187430814
0.28443505080598663 -1.1481962681885576
0.2922672956120971 -1.0882536389462067
0.29824051366350623 -1.023050326012604
0.30277682658097305 -0.9538165392810204
0.3062548595813423 -0.8814951733451574
0.30895560244198716 -0.8068009186732875
0.31106005096042894 -0.7302780757979485
0.3126813648627131 -0.6523382390907015
0.31388624170829954 -0.5732990934777003
0.3147602975308832 -0.49343377000266
0.31541677895128717 -0.41297091927497875
0.31592189267575643 -0.33207271038622027
0.3162881279107219 -0.25083494810407747
0.31649385022510124 -0.16927973201695984
0.31655768082511127 -0.08731378200515635
0.317098847047961 -0.0045679979042573485
0.1255105724536632 -0.00500433723500503
0.1259196118685957 -0.08734798816461951
0.12595701919065458 -0.16928114803500777
0.12609057501139712 -0.2508542198625302
0.1263646559184037 -0.33211190257838874
0.1267648966684812 -0.413026998109949
0.12729392623088698 -0.4935074070675067
0.1279881392612063 -0.5734031671678395
0.12892197220287874 -0.652500336067098
0.13018601474647157 -0.730519087544095
0.13185043479946446 -0.8071386898109248
0.13398925407237952 -0.8819607519157443
0.13673994341957943 -0.9544598722711056
0.1403202435883923 -1.023947825654568
0.1450356811529586 -1.0895008110733941
0.1512330579246287 -1.1498909295324877
0.1592367312474757 -1.2035556420822393
0.169267389512859 -1.2486375219694403
0.1814000656247487 -1.2831344196559167
0.19550312429980843 -1.3051564940221638
0.2110761006564422 -1.3132041482277785
0.22664907701307527 -1.3051564940221394
0.2407521356881334 -1.2831344196558663
0.252884811800021 -1.2486375219693675
0.2629154700654017 -1.2035556420821498
0.27091914338824613 -1.1498909295323867
0.2771165201599137 -1.089500811073284
0.2818319577244775 -1.0239478256544505
0.2854122578932877 -0.9544598722709844
0.2881629472404849 -0.881960751915623
0.2903017665133974 -0.8071386898108067
0.291966186566388 -0.7305190875439829
0.29323022910997903 -0.6525003360669931
0.29416406205164997 -0.5734031671677435
0.2948582750819684 -0.4935074070674212
0.2953873046443736 -0.4130269981098762
0.2957875453944508 -0.3321119025783281
0.29606162630145727 -0.2508542198624827
0.29619518212219975 -0.1692811480349729
0.2962325894442585 -0.08734798816459767
0.2966416288591902 -0.005004337234997682
0.14590233585190177 -0.00534504408603028
0.14620847860619549 -0.08738960899869513
0.1462269853325496 -0.16928060947064355
0.1462978002762433 -0.25086416425998237
0.1464834598737438 -0.33213955397882644
0.14677683248238454 -0.41307016380783956
0.14717498026562348 -0.4935648632964878
0.14769682478191096 -0.5734797330634613
0.14838655225879244 -0.6526103641591808
0.14930532098040425 -0.7306849976756777
0.15052799183304613 -0.807378559752578
0.1521125699191669 -0.8822953687429393
0.1541516355694024 -0.9549257549421288
0.15680132601733096 -1.0246035106281413
0.16028879562128523 -1.0904224414519492
0.1648850496627673 -1.151159708491037
0.17085693735925672 -1.2052395440857329
0.17841145850513868 -1.2507786973475354
0.18767448587575342 -1.2857431063426823
0.19865340059452422 -1.3081901586983475
0.21107610065643986 -1.316513119982077
0.22349880071835504 -1.3081901586983227
0.23447771543712445 -1.2857431063426317
0.24374074280773747 -1.2507786973474624
0.25129526395361745 -1.205239544085643
0.2572671516501049 -1.1511597084909353
0.26186340569158495 -1.0904224414518384
0.26535087529553725 -1.0246035106280234
0.26800056574346415 -0.954925754942007
0.2700396313936975 -0.8822953687428177
0.2716242094798164 -0.8073785597524594
0.27284688033245674 -0.7306849976755653
0.2737656490540672 -0.6526103641590757
0.27445537653094776 -0.5734797330633653
0.27497722104723465 -0.49356486329640237
0.2753753688304732 -0.4130701638077668
0.2756687414391137 -0.33213955397876577
0.27585440103661407 -0.25086416425993485
0.2759252159803078 -0.16928060947060866
0.27594372270666184 -0.08738960899867328
0.276249865460955 -0.00534504408602238
0.16624315064231357 -0.00560966887106719
0.16647209237600175 -0.08743619962971777
0.1664720715910628 -0.16927868839897536
0.16648792744184593 -0.2508660628879048
0.1665891875179788 -0.33215590962772734
0.16677487317419076 -0.41309970414763475
0.1670385784292064 -0.4936062360733291
0.16738720358658396 -0.5735338545595753
0.16784759223901655 -0.6526822042220929
0.1684497792136043 -0.73078704058034
0.16924331905355822 -0.8075273361693911
0.1702806961865635 -0.8825081979863414
0.17162074274046427 -0.9552256458682156
0.17336427376923644 -1.0250311587939562
0.1756585641917534 -1.0910328171639994
0.1786923743176186 -1.1520156032318318
0.182662174351716 -1.2063987607365532
0.1877556339740469 -1.2522856059902583
0.19412727731873522 -1.2876278578770812
0.20190446403511184 -1.3104587461601205
0.21107610065643734 -1.3190803875017412
0.22024773727776256 -1.3104587461600952
0.22802492399413823 -1.28762785787703
0.2343965673388252 -1.2522856059901848
0.23949002696115465 -1.206398760736463
0.24345982699525073 -1.15201560323173
0.24649363712111458 -1.0910328171638881
0.24878792754363038 -1.0250311587938383
0.25053145857240156 -0.9552256458680934
0.2518715051263011 -0.8825081979862193
0.2529088822593052 -0.8075273361692723
0.2537024220992581 -0.7307870405802274
0.25430460907384506 -0.6526822042219876
0.25476499772627714 -0.5735338545594793
0.25511362288365436 -0.49360623607324355
0.2553773281386698 -0.41309970414756186
0.2555630137948816 -0.33215590962766667
0.2556642738710145 -0.25086606288785723
0.25568012972179754 -0.16927868839894047
0.2556801089368586 -0.08743619962969588
0.25590905067054637 -0.005609668871058918
0.18653790794397063 -0.005822619976417642
0.18671571597891523 -0.08748410057791443
0.18669731399746609 -0.16927559556313437
0.18666390489822843 -0.2508609373273291
0.1866847385502108 -0.33216131048842346
0.18676316164469284 -0.4131154045890637
0.18689039641550367 -0.493630492322394
0.18706433326148592 -0.5735663508947915
0.18729215261642718 -0.6527248423277804
0.18759569612057156 -0.730844080530601
0.18798709192000268 -0.8076040970286612
0.18850105378318013 -0.8826153581762326
0.1891589546353374 -0.955376761710347
0.1900171134385498 -1.025250944386477
0.1911519009126581 -1.0913542950633401
0.19266292571734608 -1.1524805547349328
0.19466824955653528 -1.207049825557692
0.19731359376449192 -1.2531699813959354
0.20079954486760987 -1.2887881039551363
0.20530882412177898 -1.3119408423461294
0.21107610065643467 -1.3208845008701833
0.21684337719109018 -1.311940842346104
0.22135265644525884 -1.288788103955085
0.22483860754837598 -1.2531699813958617
0.2274839517563317 -1.2070498255576017
0.2294892755955204 -1.1524805547348307
0.2310003004002078 -1.0913542950632287
0.23213508787431572 -1.0252509443863589
0.23299324667752783 -0.9553767617102249
0.23365114752968466 -0.8826153581761103
0.23416510939286164 -0.8076040970285423
0.23455650519229246 -0.7308440805304881
0.23486004869643656 -0.6527248423276751
0.23508786805137766 -0.5735663508946954
0.23526180489735973 -0.4936304923223085
0.2353890396681705 -0.41311540458899076
0.23546746276265254 -0.3321613104883628
0.23548829641463498 -0.25086093732728154
0.23545488731539732 -0.16927559556309948
0.23543648533394818 -0.0874841005778925
0.2356142933688926 -0.005822619976409142
0.20680357646221262 -0.005994497678661964
0.20694350500318592 -0.08753092810649354
0.20690782722783319 -0.16927117330466354
0.20682932253538247 -0.25084955833257044
0.2067734913294727 -0.33215622141434753
0.2067460648756167 -0.4131172033420269
0.20673596494538754 -0.4936373980955199
0.20673380773779526 -0.5735770409219763
0.20673412282077674 -0.6527387550013747
0.2067346689762775 -0.7308631071112692
0.20673502219339232 -0.8076285357527297
0.2067353183869648 -0.8826486807794307
0.20673546054420958 -0.9554206635105587
0.2067344123611615 -1.0253099710976827
0.20673198778042334 -1.0914393182410784
0.2067373533431849 -1.1526058413813969
0.2067875908240481 -1.2072371216772821
0.20699562670441618 -1.2534677931948328
0.2075993980231407 -1.2892571663035297
0.20887930121754283 -1.3126334905955974
0.21107610065643181 -1.3219054393653678
0.21327290009532093 -1.3126334905955723
0.21455280328972295 -1.2892571663034784
0.21515657460844725 -1.253467793194759
0.21536461048881533 -1.207237121677192
0.2154148479696788 -1.1526058413812945
0.2154202135324406 -1.091439318240967
0.21541778895170272 -1.0253099710975646
0.21541674076865505 -0.9554206635104366
0.21541688292590025 -0.8826486807793082
0.21541717911947303 -0.807628535752611
0.21541753233658809 -0.7308631071111563
0.21541807849208908 -0.6527387550012694
0.2154183935750707 -0.5735770409218801
0.2154162363674785 -0.49363739809543444
0.21540613643724948 -0.4131172033419539
0.2153787099833936 -0.33215622141428686
0.2153228787774839 -0.2508495583325228
0.21524437408503325 -0.16927117330462865
0.21520869630968056 -0.08753092810647159
0.21534862485065373 -0.005994497678653291
0.22705312352198878 -0.0061312496546075766
0.2271608615906909 -0.08757464997950394
0.22710862494448653 -0.16926522714931053
0.22698821950996537 -0.2508324693533292
0.22685919719915473 -0.33214117294373885
0.22672804825765472 -0.41310527212679793
0.22658154936865094 -0.49362691006795056
0.2264033798072892 -0.5735657399764758
0.22617618630783248 -0.6527250624640872
0.22587369505100766 -0.7308442665063181
0.2254829760160489 -0.8076042428963814
0.22496961990005424 -0.8826154549456203
0.22431205187868616 -0.9553765949885408
0.22345214220384363 -1.0252501101389255
0.2223123471721228 -1.0913537759753948
0.2208084448402407 -1.1524870596237948
0.218896452622713 -1.207089441569186
0.21663346580819734 -1.2533157571705957
0.21424168171396638 -1.2891660809157044
0.21213435418958315 -1.3126378376901688
0.21107610065642926 -1.3222467147534678
0.21001784712327526 -1.3126378376901435
0.20791051959889184 -1.2891660809156529
0.20551873550466151 -1.253315757170522
0.2032557486901468 -1.207089441569096
0.20134375647262023 -1.152487059623693
0.1998398541407391 -1.0913537759752838
0.19870005910901925 -1.0252501101388076
0.19784014943417788 -0.9553765949884189
0.19718258141281098 -0.8826154549454981
0.19666922529681743 -0.8076042428962625
0.19627850626185955 -0.7308442665062053
0.19597601500503542 -0.652725062463982
0.19574882150557915 -0.5735657399763797
0.19557065194421777 -0.4936269100678652
0.19542415305521427 -0.41310527212672504
0.1952930041137145 -0.3321411729436782
0.19516398180290404 -0.25083246935328163
0.195043576368383 -0.1692652271492756
0.19499133972217866 -0.08757464997948197
0.19509907779088068 -0.0061312496545987616
0.24729542333817453 -0.006237259828746522
0.24737375549936305 -0.08761363772735528
0.24730465164983378 -0.16925743348948322
0.247144836412229 -0.2508100927099367
0.24694589375895037 -0.33211672304956935
0.2467136837547711 -0.4130799679398438
0.2464330444705218 -0.4935992904325831
0.2460808916430962 -0.5735326962951811
0.24562103198390184 -0.6526826367723217
0.24501976038123346 -0.7307874153120067