# vtk DataFile Version 3.0
Some data
ASCII
DATASET UNSTRUCTURED_GRID
POINTS 861 float
0.0 0.0 0.0
0.4 0.0 0.0
0.8 0.0 0.0
1.2000000000000002 0.0 0.0
1.6 0.0 0.0
2.0 0.0 0.0
2.4000000000000004 0.0 0.0
2.8000000000000003 0.0 0.0
3.2 0.0 0.0
3.6 0.0 0.0
4.0 0.0 0.0
4.4 0.0 0.0
4.800000000000001 0.0 0.0
5.2 0.0 0.0
5.6000000000000005 0.0 0.0
6.0 0.0 0.0
6.4 0.0 0.0
6.800000000000001 0.0 0.0
7.2 0.0 0.0
7.6000000000000005 0.0 0.0
8.0 0.0 0.0
8.4 0.0 0.0
8.8 0.0 0.0
9.200000000000001 0.0 0.0
9.600000000000001 0.0 0.0
10.0 0.0 0.0
10.4 0.0 0.0
10.8 0.0 0.0
11.200000000000001 0.0 0.0
11.600000000000001 0.0 0.0
12.0 0.0 0.0
12.4 0.0 0.0
12.8 0.0 0.0
13.200000000000001 0.0 0.0
13.600000000000001 0.0 0.0
14.0 0.0 0.0
14.4 0.0 0.0
14.8 0.0 0.0
15.200000000000001 0.0 0.0
15.600000000000001 0.0 0.0
16.0 0.0 0.0
0.0 0.1 0.0
0.4 0.1 0.0
0.8 0.1 0.0
1.2000000000000002 0.1 0.0
1.6 0.1 0.0
2.0 0.1 0.0
2.4000000000000004 0.1 0.0
2.8000000000000003 0.1 0.0
3.2 0.1 0.0
3.6 0.1 0.0
4.0 0.1 0.0
4.4 0.1 0.0
4.800000000000001 0.1 0.0
5.2 0.1 0.0
5.6000000000000005 0.1 0.0
6.0 0.1 0.0
6.4 0.1 0.0
6.800000000000001 0.1 0.0
7.2 0.1 0.0
7.6000000000000005 0.1 0.0
8.0 0.1 0.0
8.4 0.1 0.0
8.8 0.1 0.0
9.200000000000001 0.1 0.0
9.600000000000001 0.1 0.0
10.0 0.1 0.0
10.4 0.1 0.0
10.8 0.1 0.0
11.200000000000001 0.1 0.0
11.600000000000001 0.1 0.0
12.0 0.1 0.0
12.4 0.1 0.0
12.8 0.1 0.0
13.200000000000001 0.1 0.0
13.600000000000001 0.1 0.0
14.0 0.1 0.0
14.4 0.1 0.0
14.8 0.1 0.0
15.200000000000001 0.1 0.0
15.600000000000001 0.1 0.0
16.0 0.1 0.0
0.0 0.2 0.0
0.4 0.2 0.0
0.8 0.2 0.0
1.2000000000000002 0.2 0.0
1.6 0.2 0.0
2.0 0.2 0.0
2.4000000000000004 0.2 0.0
2.8000000000000003 0.2 0.0
3.2 0.2 0.0
3.6 0.2 0.0
4.0 0.2 0.0
4.4 0.2 0.0
4.800000000000001 0.2 0.0
5.2 0.2 0.0
5.6000000000000005 0.2 0.0
6.0 0.2 0.0
6.4 0.2 0.0
6.800000000000001 0.2 0.0
7.2 0.2 0.0
7.6000000000000005 0.2 0.0
8.0 0.2 0.0
8.4 0.2 0.0
8.8 0.2 0.0
9.200000000000001 0.2 0.0
9.600000000000001 0.2 0.0
10.0 0.2 0.0
10.4 0.2 0.0
10.8 0.2 0.0
11.200000000000001 0.2 0.0
11.600000000000001 0.2 0.0
12.0 0.2 0.0
12.4 0.2 0.0
12.8 0.2 0.0
13.200000000000001 0.2 0.0
13.600000000000001 0.2 0.0
14.0 0.2 0.0
14.4 0.2 0.0
14.8 0.2 0.0
15.200000000000001 0.2 0.0
15.600000000000001 0.2 0.0
16.0 0.2 0.0
0.0 0.30000000000000004 0.0
0.4 0.30000000000000004 0.0
0.8 0.30000000000000004 0.0
1.2000000000000002 0.30000000000000004 0.0
1.6 0.30000000000000004 0.0
2.0 0.30000000000000004 0.0
2.4000000000000004 0.30000000000000004 0.0
2.8000000000000003 0.30000000000000004 0.0
3.2 0.30000000000000004 0.0
3.6 0.30000000000000004 0.0
4.0 0.30000000000000004 0.0
4.4 0.30000000000000004 0.0
4.800000000000001 0.30000000000000004 0.0
5.2 0.30000000000000004 0.0
5.6000000000000005 0.30000000000000004 0.0
6.0 0.30000000000000004 0.0
6.4 0.30000000000000004 0.0
6.800000000000001 0.30000000000000004 0.0
7.2 0.30000000000000004 0.0
7.6000000000000005 0.30000000000000004 0.0
8.0 0.30000000000000004 0.0
8.4 0.30000000000000004 0.0
8.8 0.30000000000000004 0.0
9.200000000000001 0.30000000000000004 0.0
9.600000000000001 0.30000000000000004 0.0
10.0 0.30000000000000004 0.0
10.4 0.30000000000000004 0.0
10.8 0.30000000000000004 0.0
11.200000000000001 0.30000000000000004 0.0
11.600000000000001 0.30000000000000004 0.0
12.0 0.30000000000000004 0.0
12.4 0.30000000000000004 0.0
12.8 0.30000000000000004 0.0
13.200000000000001 0.30000000000000004 0.0
13.600000000000001 0.30000000000000004 0.0
14.0 0.30000000000000004 0.0
14.4 0.30000000000000004 0.0
14.8 0.30000000000000004 0.0
15.200000000000001 0.30000000000000004 0.0
15.600000000000001 0.30000000000000004 0.0
16.0 0.30000000000000004 0.0
0.0 0.4 0.0
0.4 0.4 0.0
0.8 0.4 0.0
1.2000000000000002 0.4 0.0
1.6 0.4 0.0
2.0 0.4 0.0
2.4000000000000004 0.4 0.0
2.8000000000000003 0.4 0.0
3.2 0.4 0.0
3.6 0.4 0.0
4.0 0.4 0.0
4.4 0.4 0.0
4.800000000000001 0.4 0.0
5.2 0.4 0.0
5.6000000000000005 0.4 0.0
6.0 0.4 0.0
6.4 0.4 0.0
6.800000000000001 0.4 0.0
7.2 0.4 0.0
7.6000000000000005 0.4 0.0
8.0 0.4 0.0
8.4 0.4 0.0
8.8 0.4 0.0
9.200000000000001 0.4 0.0
9.600000000000001 0.4 0.0
10.0 0.4 0.0
10.4 0.4 0.0
10.8 0.4 0.0
11.200000000000001 0.4 0.0
11.600000000000001 0.4 0.0
12.0 0.4 0.0
12.4 0.4 0.0
12.8 0.4 0.0
13.200000000000001 0.4 0.0
13.600000000000001 0.4 0.0
14.0 0.4 0.0
14.4 0.4 0.0
14.8 0.4 0.0
15.200000000000001 0.4 0.0
15.600000000000001 0.4 0.0
16.0 0.4 0.0
0.0 0.5 0.0
0.4 0.5 0.0
0.8 0.5 0.0
1.2000000000000002 0.5 0.0
1.6 0.5 0.0
2.0 0.5 0.0
2.4000000000000004 0.5 0.0
2.8000000000000003 0.5 0.0
3.2 0.5 0.0
3.6 0.5 0.0
4.0 0.5 0.0
4.4 0.5 0.0
4.800000000000001 0.5 0.0
5.2 0.5 0.0
5.6000000000000005 0.5 0.0
6.0 0.5 0.0
6.4 0.5 0.0
6.800000000000001 0.5 0.0
7.2 0.5 0.0
7.6000000000000005 0.5 0.0
8.0 0.5 0.0
8.4 0.5 0.0
8.8 0.5 0.0
9.200000000000001 0.5 0.0
9.600000000000001 0.5 0.0
10.0 0.5 0.0
10.4 0.5 0.0
10.8 0.5 0.0
11.200000000000001 0.5 0.0
11.600000000000001 0.5 0.0
12.0 0.5 0.0
12.4 0.5 0.0
12.8 0.5 0.0
13.200000000000001 0.5 0.0
13.600000000000001 0.5 0.0
14.0 0.5 0.0
14.4 0.5 0.0
14.8 0.5 0.0
15.200000000000001 0.5 0.0
15.600000000000001 0.5 0.0
16.0 0.5 0.0
0.0 0.6000000000000001 0.0
0.4 0.6000000000000001 0.0
0.8 0.6000000000000001 0.0
1.2000000000000002 0.6000000000000001 0.0
1.6 0.6000000000000001 0.0
2.0 0.6000000000000001 0.0
2.4000000000000004 0.6000000000000001 0.0
2.8000000000000003 0.6000000000000001 0.0
3.2 0.6000000000000001 0.0
3.6 0.6000000000000001 0.0
4.0 0.6000000000000001 0.0
4.4 0.6000000000000001 0.0
4.800000000000001 0.6000000000000001 0.0
5.2 0.6000000000000001 0.0
5.6000000000000005 0.6000000000000001 0.0
6.0 0.6000000000000001 0.0
6.4 0.6000000000000001 0.0
6.800000000000001 0.6000000000000001 0.0
7.2 0.6000000000000001 0.0
7.6000000000000005 0.6000000000000001 0.0
8.0 0.6000000000000001 0.0
8.4 0.6000000000000001 0.0
8.8 0.6000000000000001 0.0
9.200000000000001 0.6000000000000001 0.0
9.600000000000001 0.6000000000000001 0.0
10.0 0.6000000000000001 0.0
10.4 0.6000000000000001 0.0
10.8 0.6000000000000001 0.0
11.200000000000001 0.6000000000000001 0.0
11.600000000000001 0.6000000000000001 0.0
12.0 0.6000000000000001 0.0
12.4 0.6000000000000001 0.0
12.8 0.6000000000000001 0.0
13.200000000000001 0.6000000000000001 0.0
13.600000000000001 0.6000000000000001 0.0
14.0 0.6000000000000001 0.0
14.4 0.6000000000000001 0.0
14.8 0.6000000000000001 0.0
15.200000000000001 0.6000000000000001 0.0
15.600000000000001 0.6000000000000001 0.0
16.0 0.6000000000000001 0.0
0.0 0.7000000000000001 0.0
0.4 0.7000000000000001 0.0
0.8 0.7000000000000001 0.0
1.2000000000000002 0.7000000000000001 0.0
1.6 0.7000000000000001 0.0
2.0 0.7000000000000001 0.0
2.4000000000000004 0.7000000000000001 0.0
2.8000000000000003 0.7000000000000001 0.0
3.2 0.7000000000000001 0.0
3.6 0.7000000000000001 0.0
4.0 0.7000000000000001 0.0
4.4 0.7000000000000001 0.0
4.800000000000001 0.7000000000000001 0.0
5.2 0.7000000000000001 0.0
5.6000000000000005 0.7000000000000001 0.0
6.0 0.7000000000000001 0.0
6.4 0.7000000000000001 0.0
6.800000000000001 0.7000000000000001 0.0
7.2 0.7000000000000001 0.0
7.6000000000000005 0.7000000000000001 0.0
8.0 0.7000000000000001 0.0
8.4 0.7000000000000001 0.0
8.8 0.7000000000000001 0.0
9.200000000000001 0.7000000000000001 0.0
9.600000000000001 0.7000000000000001 0.0
10.0 0.7000000000000001 0.0
10.4 0.7000000000000001 0.0
10.8 0.7000000000000001 0.0
11.200000000000001 0.7000000000000001 0.0
11.600000000000001 0.7000000000000001 0.0
12.0 0.7000000000000001 0.0
12.4 0.7000000000000001 0.0
12.8 0.7000000000000001 0.0
13.200000000000001 0.7000000000000001 0.0
13.600000000000001 0.7000000000000001 0.0
14.0 0.7000000000000001 0.0
14.4 0.7000000000000001 0.0
14.8 0.7000000000000001 0.0
15.200000000000001 0.7000000000000001 0.0
15.600000000000001 0.7000000000000001 0.0
16.0 0.7000000000000001 0.0
0.0 0.8 0.0
0.4 0.8 0.0
0.8 0.8 0.0
1.2000000000000002 0.8 0.0
1.6 0.8 0.0
2.0 0.8 0.0
2.4000000000000004 0.8 0.0
2.8000000000000003 0.8 0.0
3.2 0.8 0.0
3.6 0.8 0.0
4.0 0.8 0.0
4.4 0.8 0.0
4.800000000000001 0.8 0.0
5.2 0.8 0.0
5.6000000000000005 0.8 0.0
6.0 0.8 0.0
6.4 0.8 0.0
6.800000000000001 0.8 0.0
7.2 0.8 0.0
7.6000000000000005 0.8 0.0
8.0 0.8 0.0
8.4 0.8 0.0
8.8 0.8 0.0
9.200000000000001 0.8 0.0
9.600000000000001 0.8 0.0
10.0 0.8 0.0
10.4 0.8 0.0
10.8 0.8 0.0
11.200000000000001 0.8 0.0
11.600000000000001 0.8 0.0
12.0 0.8 0.0
12.4 0.8 0.0
12.8 0.8 0.0
13.200000000000001 0.8 0.0
13.600000000000001 0.8 0.0
14.0 0.8 0.0
14.4 0.8 0.0
14.8 0.8 0.0
15.200000000000001 0.8 0.0
15.600000000000001 0.8 0.0
16.0 0.8 0.0
0.0 0.9 0.0
0.4 0.9 0.0
0.8 0.9 0.0
1.2000000000000002 0.9 0.0
1.6 0.9 0.0
2.0 0.9 0.0
2.4000000000000004 0.9 0.0
2.8000000000000003 0.9 0.0
3.2 0.9 0.0
3.6 0.9 0.0
4.0 0.9 0.0
4.4 0.9 0.0
4.800000000000001 0.9 0.0
5.2 0.9 0.0
5.6000000000000005 0.9 0.0
6.0 0.9 0.0
6.4 0.9 0.0
6.800000000000001 0.9 0.0
7.2 0.9 0.0
7.6000000000000005 0.9 0.0
8.0 0.9 0.0
8.4 0.9 0.0
8.8 0.9 0.0
9.200000000000001 0.9 0.0
9.600000000000001 0.9 0.0
10.0 0.9 0.0
10.4 0.9 0.0
10.8 0.9 0.0
11.200000000000001 0.9 0.0
11.600000000000001 0.9 0.0
12.0 0.9 0.0
12.4 0.9 0.0
12.8 0.9 0.0
13.200000000000001 0.9 0.0
13.600000000000001 0.9 0.0
14.0 0.9 0.0
14.4 0.9 0.0
14.8 0.9 0.0
15.200000000000001 0.9 0.0
15.600000000000001 0.9 0.0
16.0 0.9 0.0
0.0 1.0 0.0
0.4 1.0 0.0
0.8 1.0 0.0
1.2000000000000002 1.0 0.0
1.6 1.0 0.0
2.0 1.0 0.0
2.4000000000000004 1.0 0.0
2.8000000000000003 1.0 0.0
3.2 1.0 0.0
3.6 1.0 0.0
4.0 1.0 0.0
4.4 1.0 0.0
4.800000000000001 1.0 0.0
5.2 1.0 0.0
5.6000000000000005 1.0 0.0
6.0 1.0 0.0
6.4 1.0 0.0
6.800000000000001 1.0 0.0
7.2 1.0 0.0
7.6000000000000005 1.0 0.0
8.0 1.0 0.0
8.4 1.0 0.0
8.8 1.0 0.0
9.200000000000001 1.0 0.0
9.600000000000001 1.0 0.0
10.0 1.0 0.0
10.4 1.0 0.0
10.8 1.0 0.0
11.200000000000001 1.0 0.0
11.600000000000001 1.0 0.0
12.0 1.0 0.0
12.4 1.0 0.0
12.8 1.0 0.0
13.200000000000001 1.0 0.0
13.600000000000001 1.0 0.0
14.0 1.0 0.0
14.4 1.0 0.0
14.8 1.0 0.0
15.200000000000001 1.0 0.0
15.600000000000001 1.0 0.0
16.0 1.0 0.0
0.0 1.1 0.0
0.4 1.1 0.0
0.8 1.1 0.0
1.2000000000000002 1.1 0.0
1.6 1.1 0.0
[...]
POINT_DATA 861
SCALARS Disp float 2
LOOKUP_TABLE default
0.0 0.0
0.006169872940407022 -0.2883563915322399
0.007592551608963096 -0.5669896089183272
0.008397915681314372 -0.8444728718896406
0.009466455761079823 -1.1215575191207963
0.011268343887794931 -1.3977736786171655
0.014524742423741164 -1.672490009197096
0.02013049754571724 -1.9449091894550656
0.029142451861943346 -2.2140292538662374
0.042711333141810984 -2.478533940511533
0.061977868545855686 -2.7366406304010065
0.08800050760576436 -2.986021780052505
0.12172225016905336 -3.2238512540024207
0.16396029531713954 -3.446937665149313
0.21539804431773887 -3.6518166263762644
0.27651451097582785 -3.8348291507464163
0.34746236480066434 -3.9922263703704313
0.4279268052382402 -4.120334654479251
0.517010382331324 -4.215809513134141
0.6131925909036948 -4.2758884742607846
0.7140713866012648 -4.298720638834817
0.8149501822988299 -4.275888474260648
0.91113239087118 -4.215809513133864
1.0002159679642275 -4.120334654478851
1.0806804084017587 -3.9922263703699317
1.151628262226546 -3.834829150745845
1.2127447288845852 -3.6518166263756395
1.2641824778851352 -3.446937665148651
1.3064205230331722 -3.2238512540017417
1.3401422655964146 -2.9860217800518325
1.3661649046562816 -2.736640630400357
1.385431440060292 -2.4785339405109235
1.399000321340133 -2.214029253865674
1.4080122756563396 -1.9449091894545578
1.4136180307783015 -1.6724900091966481
1.4168744293142397 -1.3977736786167871
1.418676317440951 -1.121557519120487
1.4197448575207152 -0.8444728718894038
1.4205502215930663 -0.5669896089181622
1.421972900261621 -0.2883563915321493
1.4281427732020249 0.0
0.07192436287637093 -0.0025436217651711446
0.07627675211992198 -0.2886573161489581
0.07701092902236878 -0.5670532092387532
0.07772159869451202 -0.8445657885360094
0.07865267563328704 -1.1217190194422515
0.08017668137573045 -1.3981451433593544
0.08297154672788684 -1.6732725825647603
0.08788188173172172 -1.9463438968940707
0.095899040401947 -2.216385628353027
0.10807251897436797 -2.4820863720903374
0.1254198092942216 -2.741648418857268
0.1488705882335344 -2.992719452700991
0.17925898313524025 -3.2324470277490596
0.21732690450062908 -3.4576120197361035
0.2636973858017867 -3.6647137509828878
0.31881735960313584 -3.8500337982910717
0.38285047172154496 -4.009731228832963
0.4555517423232627 -4.140008121700791
0.5361510345879793 -4.237369724244525
0.6231869785495697 -4.298874305270233
0.7140713866012481 -4.322298864742091
0.8049557946529214 -4.298874305270093
0.8919917386144928 -4.2373697242442425
0.9725910308791776 -4.140008121700382
1.0452923014808564 -4.009731228832452
1.1093254135992217 -3.8500337982904895
1.164445387400526 -3.6647137509822514
1.2108158687016388 -3.45761201973543
1.2488837900669838 -3.23244702774837
1.2792721849686477 -2.992719452700308
1.3027229639079227 -2.74164841885661
1.3200702542277454 -2.4820863720897206
1.3322437328001422 -2.216385628352459
1.3402608914703493 -1.946343896893559
1.3451712264741718 -1.6732725825643102
1.3479660918263212 -1.3981451433589747
1.3494900975687616 -1.1217190194419417
1.350421174507536 -0.8445657885357727
1.3511318441796791 -0.5670532092385882
1.3518660210821256 -0.28865731614886725
1.356218410325671 -0.0025436217651686383
0.14282048001204742 -0.004572902454661274
0.14603101317167042 -0.28880823274960926
0.14644893869175427 -0.5670845591183701
0.14702740140802112 -0.8446472102272283
0.1478321068845961 -1.1218462773657705
0.14910626175660566 -1.3984390765300663
0.1514518567520719 -1.6739221835314493
0.15566979588135715 -1.9475774501834344
0.1626741217713231 -2.218452831824383
0.17341614499543112 -2.485234403351
0.18879627305041644 -2.7461058165106222
0.2096258163811568 -2.9986912030714032
0.23663185631817638 -3.240117637453584
0.2704697631453418 -3.467145167323276
0.3117067838603876 -3.6762418096761746
0.36076077044600546 -3.863638918098715
0.41781850170251716 -4.025417628726028
0.4827204556493244 -4.157670068976526
0.5548066579478786 -4.256754870239391
0.632678060440158 -4.319509644663594
0.7140713866012318 -4.343463690708698
0.7954647127623008 -4.319509644663451
0.8733361152545631 -4.256754870239102
0.9454223175530894 -4.157670068976109
1.0103242714998624 -4.025417628725507
1.0673820027563354 -3.8636389180981228
1.1164359893419136 -3.676241809675527
1.1576730100569188 -3.4671451673225917
1.1915109168840456 -3.240117637452884
1.2185169568210283 -2.998691203070711
1.239346500151735 -2.7461058165099566
1.2547266282066927 -2.4852344033503764
1.2654686514307787 -2.2184528318238095
1.2724729773207284 -1.9475774501829195
1.2766909164500029 -1.6739221835309974
1.2790365114454632 -1.3984390765296855
1.2803106663174704 -1.1218462773654605
1.2811153717940449 -0.8446472102269916
1.281693834510312 -0.5670845591182051
1.2821117600303957 -0.288808232749518
1.285322293190013 -0.004572902454655968
0.21317157322471084 -0.006208347796738683
0.21561049351413691 -0.2889112171045358
0.21586439425356235 -0.5671015417740878
0.2163162975195392 -0.8447122314947332
0.2170000754519592 -1.1219481816706476
0.2180539903031655 -1.3986643330434014
0.219976403166099 -1.6744433496061386
0.223510723014214 -1.9486107005864106
0.22949599429006765 -2.220226725931689
0.23878580708545807 -2.4879705451444045
0.25216863599792744 -2.7500035745253917
0.2703418326000707 -3.003927851910746
0.2939296032684295 -3.246853381214851
0.3234997743749071 -3.4755248919754624
0.3595539342725038 -3.68638690064168
0.4024879976958245 -3.8756305752346027
0.45251608629784185 -4.039273703540032
0.5095617836153287 -4.173311594140889
0.5730857378675288 -4.273955799203163
0.6418924019074528 -4.337848877537993
0.7140713866012162 -4.362337555020057
0.7862503712949748 -4.337848877537849
0.8550570353348833 -4.273955799202869
0.918580989587059 -4.173311594140465
0.9756266869045158 -4.039273703539503
1.0256547755064997 -3.8756305752340015
1.0685888389297853 -3.6863869006410233
1.1046429988273465 -3.4755248919747683
1.1342131699337903 -3.2468533812141427
1.1578009406021168 -3.003927851910045
1.175974137204231 -2.7500035745247193
1.189356966116676 -2.487970545143775
1.1986467789120472 -2.220226725931111
1.204632050187886 -1.9486107005858926
1.208166370035992 -1.6744433496056852
1.2100887828989206 -1.39866433304302
1.2111426977501254 -1.1219481816703372
1.211826475682545 -0.8447122314944965
1.2122783789485219 -0.5671015417739229
1.2125322796879474 -0.2889112171044442
1.214971199977368 -0.006208347796730808
0.28321281132943127 -0.00753324764206435
0.2850719019912221 -0.2889907601333325
0.2852371459798824 -0.5671112359558408
0.28558306326813354 -0.844762403676473
0.28615260907284096 -1.122029766585941
0.2870123747738149 -1.398833615574979
0.2885526437139818 -1.674844804151382
0.2914199812339131 -1.9494467390312014
0.2963932265056404 -2.2217071460581046
0.3042249486103794 -2.4902914760142423
0.31559641027953506 -2.7533369634421963
0.3310953841420019 -3.0084236903455905
0.3512427056406076 -3.2526481568695833
0.376520480044706 -3.4827444913530994
0.40736855125496874 -3.6951402909924114
0.44414783604715796 -3.885998044844693
0.48709455430843657 -4.0512865646893
0.5362182599767794 -4.186917997453104
0.5911431405383414 -4.288974728605016
0.6509421481138349 -4.353933159611651
0.7140713866012006 -4.378986574072034
0.777200625088562 -4.353933159611503
0.8369996326640418 -4.288974728604718
0.8919245132255823 -4.186917997452673
0.9410482188938994 -4.0512865646887635
0.9839949371551491 -3.885998044844084
1.020774221947308 -3.6951402909917466
1.0516222931575405 -3.4827444913523977
1.0769000675616096 -3.2526481568688674
1.0970473890601877 -3.0084236903448835
1.11254636292263 -2.7533369634415172
1.1239178245917647 -2.4902914760136077
1.1317495466964869 -2.221707146057523
1.1367227919682017 -1.9494467390306804
1.1395901294881257 -1.674844804150927
1.1411303984282888 -1.398833615574597
1.1419901641292616 -1.1220297665856305
1.1425597099339686 -0.8447624036762365
1.14290562722222 -0.567111235955676
1.1430708712108801 -0.2889907601332406
1.1449299618726667 -0.007533247642054153
0.35304992970230104 -0.008600324599675335
0.3544512504847547 -0.28905517114265267
0.3545652585250642 -0.5671183395972123
0.3548242977517338 -0.8447996306408408
0.3552844721896642 -1.1220950602786877
0.355975318464474 -1.3989587813835151
0.3571739786900012 -1.6751407221825996
0.3594192588716228 -1.9500922241214214
0.3633943927198126 -2.2228972817910253
0.36977685960163037 -2.49219818866778
0.37913875888122883 -2.7561053121613424
0.39196096392340707 -3.0121774222822357
0.40866396847643904 -3.2574999824352244
0.42964299307329906 -3.488801401895643
0.45527318515156334 -3.702499108625093
0.4858851287541842 -3.8947352211877586
0.5217170013482855 -4.061443764947947
0.5628558915412409 -4.198474859390172
0.6091257063922233 -4.301809301747202
0.6599171115173414 -4.367783675648577
0.714071386601185 -4.393450027170869
0.7682256616850249 -4.367783675648426
0.8190170668101311 -4.301809301746899
0.8652868816610948 -4.198474859389736
0.9064257718540291 -4.0614437649474056
0.9422576444481054 -3.8947352211871427
0.9728695880507007 -3.702499108624421
0.99849978012894 -3.4888014018949347
1.019478804725776 -3.257499982434502
1.0361818092787847 -3.0121774222815225
1.049004014320943 -2.7561053121606585
1.0583659136005237 -2.4921981886671416
1.0647483804823272 -2.2228972817904404
1.0687235143305074 -1.9500922241208984
1.070968794512123 -1.6751407221821435
1.0721674547376474 -1.398958781383133
1.0728583010124564 -1.1220950602783768
1.0733184754503864 -0.8447996306406043
1.073577514677056 -0.5671183395970475
1.0736915227173656 -0.2890551711425604
1.0750928434998157 -0.0086003245996632
0.42273784994792335 -0.009449858094134726
0.42377303397360155 -0.28910778340839877
0.4238542368188847 -0.5671252084151397
0.42403978067367437 -0.8448254489210208
0.4243933620144218 -1.1221465686566259
0.42493453934593567 -1.3990502698405893
0.42583169773700996 -1.6753483576025912
0.42750820423326696 -1.9505624745452717
0.4305313719109226 -2.223804391266643
0.4354855164462178 -2.493695697873576
0.44285548073052927 -2.7583124846798923
0.4530150491662684 -3.015192149411332
0.4662858661449427 -3.26141166107753
0.48297743028072915 -3.493698030000951
0.5034001211020933 -3.7084646012845544
0.5278447895703816 -3.901841185245126
0.5565473118893416 -4.069737866120944
0.589656083006257 -4.207967538668477
0.6271916221552947 -4.3124470115986835
0.6689059601581854 -4.379401758292878
0.7140713866011692 -4.40574522529719
0.7592368130441498 -4.379401758292725
0.8009511510470309 -4.312447011598377
0.8384866901960529 -4.207967538668036
0.8715954613129505 -4.069737866120397
0.9002979836318906 -3.901841185244504
0.924742652100158 -3.708464601283877
0.9451653429215023 -3.493698030000237
0.9618569070572698 -3.2614116610768025
0.9751277240359256 -3.015192149410614
0.9852872924716489 -2.758312484679204
0.9926572567559464 -2.493695697872934
0.9976114012912305 -2.2238043912660554
1.0006345689688785 -1.950562474544747
1.002311075465131 -1.6753483576021344
1.0032082338562034 -1.3990502698402068
1.0037494111877168 -1.122146568656315
1.004102992528464 -0.8448254489207844
1.0042885363832537 -0.5671252084149748
1.0043697392285367 -0.28910778340830645
1.0054049232542122 -0.009449858094121005
0.49231292028691004 -0.010114381250616597
0.4930554839152569 -0.2891511032044296
0.4931120228746627 -0.567132333961339
0.4932315694677859 -0.8448411140566571
0.4934800615647662 -1.122184849197178
0.4938811052605791 -1.399116408457673
0.49451998778335093 -1.675485057710515
0.4956839368986412 -1.9508784943798916
0.4978204524253306 -2.2244447444058153
0.5013979524433397 -2.4947941094828407
0.5068084965521563 -2.7599668324229496
0.514334115644913 -3.0174757784777224
0.524203366460911 -3.264391255886224
0.5366379666095121 -3.4974420487171787
0.5518782132316787 -3.7130434765967104
0.5701762543838313 -3.907320333861227
0.591759140466579 -4.076167699948263
0.616808214254218 -4.215383328090143
0.6455135971417535 -4.320864442744248
0.6780084337375655 -4.388767051597593
0.714071386601153 -4.415867388432852
0.7501343394647382 -4.388767051597439
0.7826291760605425 -4.3208644427439395
0.8113345589480662 -4.215383328089698
0.8363836327356906 -4.076167699947711
0.8579665188184233 -3.9073203338605995
0.8762645599705601 -3.7130434765960283
0.8915048065927116 -3.4974420487164615
0.9039394067412992 -3.2643912558854926
0.9138086575572837 -3.017475778477001
0.9213342766500284 -2.759966832422258
0.9267448207588348 -2.4947941094821955
0.9303223207768357 -2.2244447444052255
0.9324588363035199 -1.9508784943793658
0.933622785418807 -1.675485057710058
0.9342616679415778 -1.3991164084572905
0.9346627116373903 -1.1221848491968673
0.9349112037343705 -0.8448411140564205
0.9350307503274936 -0.5671323339611741
0.9350872892868993 -0.2891511032043372
0.9358298529152441 -0.010114381250601576
0.5617977385548414 -0.010624246432919461
0.5623153370351451 -0.2891874097743512
0.5623459525577631 -0.5671388790190232
0.5624030780141274 -0.8448476150091044
0.5625486466476889 -1.1222093178928396
0.5628095620521258 -1.3991620918356389
0.5632228965241372 -1.6755692360412455
0.5639416636291769 -1.9510661385034045
0.5652691573666814 -2.224843866816837
0.567547992781195 -2.4955131374509496
0.5710605641005913 -2.7610831102961955
0.5760013692128527 -3.019042110786406
0.5825143541649306 -3.266452869628076
0.5907401223347243 -3.5000476366762827
0.6008444748671552 -3.7162482310308547
0.613029348589603 -3.911183053432464
0.6275180482417712 -4.080741103127668
0.6445213307685438 -4.220715758865706
0.664303390149339 -4.327028990236975
0.6873505669106281 -4.395834357023717
0.7140713866011362 -4.423786813428491
0.7407922062916431 -4.395834357023562
0.763839383052927 -4.3270289902366645
0.7836214424337137 -4.220715758865258
0.8006247249604758 -4.080741103127114
0.8151134246126335 -3.911183053431834
0.8272982983350713 -3.716248231030169
0.8374026508674923 -3.500047636675563
0.8456284190372778 -3.266452869627342
0.8521414039893469 -3.0190421107856817
0.8570822091016006 -2.761083110295502
0.8605947804209902 -2.495513137450303
0.862873615835499 -2.224843866816246
0.8642011095730002 -1.9510661385028782
0.864919876678038 -1.6755692360407881
0.8653332111500489 -1.3991620918352563
0.8655941265544856 -1.1222093178925288
0.865739695188047 -0.844847615008868
0.8657968206444113 -0.5671388790188584
0.8658274361670292 -0.2891874097742587
0.8663450346473315 -0.010624246432903404
0.6312087913335613 -0.011009575205303575
0.6315631971241945 -0.28921952818517915
0.6315629119245155 -0.567142996961915
0.6315584218829903 -0.8448456949282135
0.631603859060843 -1.1222195978363199
0.6317207988729946 -1.3991881213303505
0.6319235859883283 -1.6756156025548443
0.6322642451008903 -1.9511571861775507
0.6328769391511755 -2.2250391848876108
0.633958239764323 -2.495886321124129
0.6356628533263372 -2.7616889732058145
0.6380943959345455 -3.019915181284715
0.6413145977798089 -3.2676194564767034
0.6453925225536369 -3.5015383046603734
0.6504226153496852 -3.718101177350112
0.6565437350487758 -3.9134472921841357
0.6639614736770663 -4.083473810797059
0.6729439746834917 -4.223976634314728
0.6838023740051705 -4.3309129757988245
0.6971252418746299 -4.4005286491770566
0.714071386601119 -4.4294384772922415
0.7310175313276074 -4.4005286491769
0.7443403991970642 -4.330912975798512
0.755198798518738 -4.223976634314278
0.7641812995251572 -4.0834738107965025
0.7715990381534428 -3.9134472921835037
0.7777201578525289 -3.718101177349425
0.7827502506485732 -3.5015383046596518
0.7868281754223981 -3.2676194564759684
0.7900483772676574 -3.0199151812839893
0.7924799198758623 -2.76168897320512
0.7941845334378739 -2.495886321123481
0.7952658340510192 -2.2250391848870197
0.7958785281013032 -1.951157186177024
0.7962191872138644 -1.675615602554387
0.7964219743291979 -1.3991881213299682
0.7965389141413495 -1.122219597836009
0.7965843513192022 -0.844845694927977
0.7965798612776769 -0.5671429969617501
0.7965795760779978 -0.2892195281850867
0.7969339818686302 -0.011009575205286778
0.700563960231393 -0.011296653489152104
0.7008029587829847 -0.28925070781737344
0.700768024949889 -0.567142647393535
0.7007022623306899 -0.8448358047243573
0.7006500603849062 -1.1222157434902733
0.7006231164418463 -1.3991936895899661
0.7006125119728454 -1.6756301025072224
0.700608515459577 -1.9511837339032159
0.7006068720504821 -2.225089365583534
0.7006066795441137 -2.4959800501763394
0.7006067544998642 -2.7618449859104786
0.7006047994835832 -3.020149268011201
0.7005943580610741 -3.2679428909175705
0.7005736478493595 -3.5019640849475713
0.7005629987636026 -3.7186500955510144
0.7006406062497987 -3.914155208617904
0.7009890315031265 -4.084400546999872
0.7019429184833679 -4.225206598322085
0.7039580066925213 -4.332545885036914
0.7075435706265459 -4.402775087335926
0.7140713866011011 -4.432710468827125
0.7205992025756564 -4.402775087335771
0.7241847665096802 -4.332545885036601
0.7261998547188326 -4.225206598321635
0.7271537416990731 -4.084400546999315
0.7275021669524023 -3.9141552086172715
0.7275797744385993 -3.718650095550326
0.7275691253528437 -3.501964084946849
0.7275484151411312 -3.267942890916835
0.7275379737186235 -3.020149268010475
0.727536018702344 -2.7618449859097836
0.7275360936580956 -2.4959800501756915
0.7275359011517277 -2.225089365582943
0.727534257742633 -1.9511837339026892
0.7275302612293648 -1.6756301025067653
0.7275196567603641 -1.3991936895895833
0.7274927128173043 -1.1222157434899627
0.7274405108715207 -0.8448358047241206
0.7273747482523215 -0.56714264739337
0.7273398144192258 -0.28925070781728107
0.727578812970817 -0.011296653489134783
0.7698746142865076 -0.01151143907430504
0.7700334650146707 -0.2892820895725888
0.7699658540422685 -0.5671369170197196
0.7698398587467987 -0.8448181134406672
0.7696926708600977 -1.1221981255662357
0.769524064390781 -1.3991785178184417
0.7693005302982177 -1.6756130666200157
0.7689515341784698 -1.951156333035692
0.768336190677397 -2.225038937069406
0.7672550297838131 -2.495886318275458
0.765550742699862 -2.761688735910114
0.7631136872407285 -3.0199123227611024
0.7598719149156471 -3.2676118229279245
0.7557542091085824 -3.5015287285332986
0.7507081294945114 -3.718109811941094
0.7447490994552516 -3.9135308225333287
0.7380202526790021 -4.083747374734829
0.7308539633120461 -4.224624786974051
0.7237558948556876 -4.332139228439336
0.7174550549412408 -4.402688759558059
0.7140713866010828 -4.43369217715972
0.7106877182609238 -4.402688759557902
0.7043868783464774 -4.332139228439022
0.6972888098901233 -4.2246247869736
0.6901225205231736 -4.083747374734273
0.6833936737469315 -3.9135308225326972
0.6774346437076784 -3.718109811940407
0.6723885640936135 -3.501528728532578
0.6682708582865559 -3.26761182292719
0.6650290859614818 -3.0199123227603777
0.6625920305023546 -2.76168873590942
0.6608877434184086 -2.4958863182748106
0.6598065825248279 -2.2250389370688155
0.659191239023757 -1.9511563330351653
0.6588422429040102 -1.6756130666195583
0.6586187088114472 -1.399178517818059
0.6584501023421309 -1.122198125565925
0.6583029144554299 -0.8448181134404305
0.6581769191599602 -0.5671369170195545
0.658109308187558 -0.28928208957249646
0.6582681589157208 -0.011511439074287476
0.8391516657629711 -0.011674636860874629
0.8392568962224355 -0.2893121649072899
0.8391602079388021 -0.5671261269918083
0.8389767140851546 -0.8447927541698335
0.838737924015762 -1.1221673494176467
0.8384313603224631 -1.3991430506568192
0.8379974565581906 -1.6755638879394228
0.8372712419049317 -1.9510642096869484
0.8359429255372507 -2.224843487091818
0.8336654043230851 -2.495513277657877
0.8301524070547008 -2.7610822041899943
0.8252053004487349 -3.019036010875023
0.8186735146861941 -3.266437601208399
0.8104157334722832 -3.5000293642923372
0.8003058309947311 -3.7162679528100866
0.788287165431096 -3.9113543218528504
0.7744577880938821 -4.081287589139499
0.7591330962095685 -4.2219862833675865
0.7429127025338141 -4.329485652858576
0.7270393546585894 -4.400388481365379
0.7140713866010651 -4.432561633239886
0.7011034185435409 -4.400388481365223
0.6852300706683186 -4.3294856528582635
0.6690096769925714 -4.221986283367139
0.6536849851082697 -4.081287589138945