# vtk DataFile Version 3.0
Some data
ASCII
DATASET UNSTRUCTURED_GRID
POINTS 861 float
0.0 0.0 0.0
0.4 0.0 0.0
0.8 0.0 0.0
1.2000000000000002 0.0 0.0
1.6 0.0 0.0
2.0 0.0 0.0
2.4000000000000004 0.0 0.0
2.8000000000000003 0.0 0.0
3.2 0.0 0.0
3.6 0.0 0.0
4.0 0.0 0.0
4.4 0.0 0.0
4.800000000000001 0.0 0.0
5.2 0.0 0.0
5.6000000000000005 0.0 0.0
6.0 0.0 0.0
6.4 0.0 0.0
6.800000000000001 0.0 0.0
7.2 0.0 0.0
7.6000000000000005 0.0 0.0
8.0 0.0 0.0
8.4 0.0 0.0
8.8 0.0 0.0
9.200000000000001 0.0 0.0
9.600000000000001 0.0 0.0
10.0 0.0 0.0
10.4 0.0 0.0
10.8 0.0 0.0
11.200000000000001 0.0 0.0
11.600000000000001 0.0 0.0
12.0 0.0 0.0
12.4 0.0 0.0
12.8 0.0 0.0
13.200000000000001 0.0 0.0
13.600000000000001 0.0 0.0
14.0 0.0 0.0
14.4 0.0 0.0
14.8 0.0 0.0
15.200000000000001 0.0 0.0
15.600000000000001 0.0 0.0
16.0 0.0 0.0
0.0 0.1 0.0
0.4 0.1 0.0
0.8 0.1 0.0
1.2000000000000002 0.1 0.0
1.6 0.1 0.0
2.0 0.1 0.0
2.4000000000000004 0.1 0.0
2.8000000000000003 0.1 0.0
3.2 0.1 0.0
3.6 0.1 0.0
4.0 0.1 0.0
4.4 0.1 0.0
4.800000000000001 0.1 0.0
5.2 0.1 0.0
5.6000000000000005 0.1 0.0
6.0 0.1 0.0
6.4 0.1 0.0
6.800000000000001 0.1 0.0
7.2 0.1 0.0
7.6000000000000005 0.1 0.0
8.0 0.1 0.0
8.4 0.1 0.0
8.8 0.1 0.0
9.200000000000001 0.1 0.0
9.600000000000001 0.1 0.0
10.0 0.1 0.0
10.4 0.1 0.0
10.8 0.1 0.0
11.200000000000001 0.1 0.0
11.600000000000001 0.1 0.0
12.0 0.1 0.0
12.4 0.1 0.0
12.8 0.1 0.0
13.200000000000001 0.1 0.0
13.600000000000001 0.1 0.0
14.0 0.1 0.0
14.4 0.1 0.0
14.8 0.1 0.0
15.200000000000001 0.1 0.0
15.600000000000001 0.1 0.0
16.0 0.1 0.0
0.0 0.2 0.0
0.4 0.2 0.0
0.8 0.2 0.0
1.2000000000000002 0.2 0.0
1.6 0.2 0.0
2.0 0.2 0.0
2.4000000000000004 0.2 0.0
2.8000000000000003 0.2 0.0
3.2 0.2 0.0
3.6 0.2 0.0
4.0 0.2 0.0
4.4 0.2 0.0
4.800000000000001 0.2 0.0
5.2 0.2 0.0
5.6000000000000005 0.2 0.0
6.0 0.2 0.0
6.4 0.2 0.0
6.800000000000001 0.2 0.0
7.2 0.2 0.0
7.6000000000000005 0.2 0.0
8.0 0.2 0.0
8.4 0.2 0.0
8.8 0.2 0.0
9.200000000000001 0.2 0.0
9.600000000000001 0.2 0.0
10.0 0.2 0.0
10.4 0.2 0.0
10.8 0.2 0.0
11.200000000000001 0.2 0.0
11.600000000000001 0.2 0.0
12.0 0.2 0.0
12.4 0.2 0.0
12.8 0.2 0.0
13.200000000000001 0.2 0.0
13.600000000000001 0.2 0.0
14.0 0.2 0.0
14.4 0.2 0.0
14.8 0.2 0.0
15.200000000000001 0.2 0.0
15.600000000000001 0.2 0.0
16.0 0.2 0.0
0.0 0.30000000000000004 0.0
0.4 0.30000000000000004 0.0
0.8 0.30000000000000004 0.0
1.2000000000000002 0.30000000000000004 0.0
1.6 0.30000000000000004 0.0
2.0 0.30000000000000004 0.0
2.4000000000000004 0.30000000000000004 0.0
2.8000000000000003 0.30000000000000004 0.0
3.2 0.30000000000000004 0.0
3.6 0.30000000000000004 0.0
4.0 0.30000000000000004 0.0
4.4 0.30000000000000004 0.0
4.800000000000001 0.30000000000000004 0.0
5.2 0.30000000000000004 0.0
5.6000000000000005 0.30000000000000004 0.0
6.0 0.30000000000000004 0.0
6.4 0.30000000000000004 0.0
6.800000000000001 0.30000000000000004 0.0
7.2 0.30000000000000004 0.0
7.6000000000000005 0.30000000000000004 0.0
8.0 0.30000000000000004 0.0
8.4 0.30000000000000004 0.0
8.8 0.30000000000000004 0.0
9.200000000000001 0.30000000000000004 0.0
9.600000000000001 0.30000000000000004 0.0
10.0 0.30000000000000004 0.0
10.4 0.30000000000000004 0.0
10.8 0.30000000000000004 0.0
11.200000000000001 0.30000000000000004 0.0
11.600000000000001 0.30000000000000004 0.0
12.0 0.30000000000000004 0.0
12.4 0.30000000000000004 0.0
12.8 0.30000000000000004 0.0
13.200000000000001 0.30000000000000004 0.0
13.600000000000001 0.30000000000000004 0.0
14.0 0.30000000000000004 0.0
14.4 0.30000000000000004 0.0
14.8 0.30000000000000004 0.0
15.200000000000001 0.30000000000000004 0.0
15.600000000000001 0.30000000000000004 0.0
16.0 0.30000000000000004 0.0
0.0 0.4 0.0
0.4 0.4 0.0
0.8 0.4 0.0
1.2000000000000002 0.4 0.0
1.6 0.4 0.0
2.0 0.4 0.0
2.4000000000000004 0.4 0.0
2.8000000000000003 0.4 0.0
3.2 0.4 0.0
3.6 0.4 0.0
4.0 0.4 0.0
4.4 0.4 0.0
4.800000000000001 0.4 0.0
5.2 0.4 0.0
5.6000000000000005 0.4 0.0
6.0 0.4 0.0
6.4 0.4 0.0
6.800000000000001 0.4 0.0
7.2 0.4 0.0
7.6000000000000005 0.4 0.0
8.0 0.4 0.0
8.4 0.4 0.0
8.8 0.4 0.0
9.200000000000001 0.4 0.0
9.600000000000001 0.4 0.0
10.0 0.4 0.0
10.4 0.4 0.0
10.8 0.4 0.0
11.200000000000001 0.4 0.0
11.600000000000001 0.4 0.0
12.0 0.4 0.0
12.4 0.4 0.0
12.8 0.4 0.0
13.200000000000001 0.4 0.0
13.600000000000001 0.4 0.0
14.0 0.4 0.0
14.4 0.4 0.0
14.8 0.4 0.0
15.200000000000001 0.4 0.0
15.600000000000001 0.4 0.0
16.0 0.4 0.0
0.0 0.5 0.0
0.4 0.5 0.0
0.8 0.5 0.0
1.2000000000000002 0.5 0.0
1.6 0.5 0.0
2.0 0.5 0.0
2.4000000000000004 0.5 0.0
2.8000000000000003 0.5 0.0
3.2 0.5 0.0
3.6 0.5 0.0
4.0 0.5 0.0
4.4 0.5 0.0
4.800000000000001 0.5 0.0
5.2 0.5 0.0
5.6000000000000005 0.5 0.0
6.0 0.5 0.0
6.4 0.5 0.0
6.800000000000001 0.5 0.0
7.2 0.5 0.0
7.6000000000000005 0.5 0.0
8.0 0.5 0.0
8.4 0.5 0.0
8.8 0.5 0.0
9.200000000000001 0.5 0.0
9.600000000000001 0.5 0.0
10.0 0.5 0.0
10.4 0.5 0.0
10.8 0.5 0.0
11.200000000000001 0.5 0.0
11.600000000000001 0.5 0.0
12.0 0.5 0.0
12.4 0.5 0.0
12.8 0.5 0.0
13.200000000000001 0.5 0.0
13.600000000000001 0.5 0.0
14.0 0.5 0.0
14.4 0.5 0.0
14.8 0.5 0.0
15.200000000000001 0.5 0.0
15.600000000000001 0.5 0.0
16.0 0.5 0.0
0.0 0.6000000000000001 0.0
0.4 0.6000000000000001 0.0
0.8 0.6000000000000001 0.0
1.2000000000000002 0.6000000000000001 0.0
1.6 0.6000000000000001 0.0
2.0 0.6000000000000001 0.0
2.4000000000000004 0.6000000000000001 0.0
2.8000000000000003 0.6000000000000001 0.0
3.2 0.6000000000000001 0.0
3.6 0.6000000000000001 0.0
4.0 0.6000000000000001 0.0
4.4 0.6000000000000001 0.0
4.800000000000001 0.6000000000000001 0.0
5.2 0.6000000000000001 0.0
5.6000000000000005 0.6000000000000001 0.0
6.0 0.6000000000000001 0.0
6.4 0.6000000000000001 0.0
6.800000000000001 0.6000000000000001 0.0
7.2 0.6000000000000001 0.0
7.6000000000000005 0.6000000000000001 0.0
8.0 0.6000000000000001 0.0
8.4 0.6000000000000001 0.0
8.8 0.6000000000000001 0.0
9.200000000000001 0.6000000000000001 0.0
9.600000000000001 0.6000000000000001 0.0
10.0 0.6000000000000001 0.0
10.4 0.6000000000000001 0.0
10.8 0.6000000000000001 0.0
11.200000000000001 0.6000000000000001 0.0
11.600000000000001 0.6000000000000001 0.0
12.0 0.6000000000000001 0.0
12.4 0.6000000000000001 0.0
12.8 0.6000000000000001 0.0
13.200000000000001 0.6000000000000001 0.0
13.600000000000001 0.6000000000000001 0.0
14.0 0.6000000000000001 0.0
14.4 0.6000000000000001 0.0
14.8 0.6000000000000001 0.0
15.200000000000001 0.6000000000000001 0.0
15.600000000000001 0.6000000000000001 0.0
16.0 0.6000000000000001 0.0
0.0 0.7000000000000001 0.0
0.4 0.7000000000000001 0.0
0.8 0.7000000000000001 0.0
1.2000000000000002 0.7000000000000001 0.0
1.6 0.7000000000000001 0.0
2.0 0.7000000000000001 0.0
2.4000000000000004 0.7000000000000001 0.0
2.8000000000000003 0.7000000000000001 0.0
3.2 0.7000000000000001 0.0
3.6 0.7000000000000001 0.0
4.0 0.7000000000000001 0.0
4.4 0.7000000000000001 0.0
4.800000000000001 0.7000000000000001 0.0
5.2 0.7000000000000001 0.0
5.6000000000000005 0.7000000000000001 0.0
6.0 0.7000000000000001 0.0
6.4 0.7000000000000001 0.0
6.800000000000001 0.7000000000000001 0.0
7.2 0.7000000000000001 0.0
7.6000000000000005 0.7000000000000001 0.0
8.0 0.7000000000000001 0.0
8.4 0.7000000000000001 0.0
8.8 0.7000000000000001 0.0
9.200000000000001 0.7000000000000001 0.0
9.600000000000001 0.7000000000000001 0.0
10.0 0.7000000000000001 0.0
10.4 0.7000000000000001 0.0
10.8 0.7000000000000001 0.0
11.200000000000001 0.7000000000000001 0.0
11.600000000000001 0.7000000000000001 0.0
12.0 0.7000000000000001 0.0
12.4 0.7000000000000001 0.0
12.8 0.7000000000000001 0.0
13.200000000000001 0.7000000000000001 0.0
13.600000000000001 0.7000000000000001 0.0
14.0 0.7000000000000001 0.0
14.4 0.7000000000000001 0.0
14.8 0.7000000000000001 0.0
15.200000000000001 0.7000000000000001 0.0
15.600000000000001 0.7000000000000001 0.0
16.0 0.7000000000000001 0.0
0.0 0.8 0.0
0.4 0.8 0.0
0.8 0.8 0.0
1.2000000000000002 0.8 0.0
1.6 0.8 0.0
2.0 0.8 0.0
2.4000000000000004 0.8 0.0
2.8000000000000003 0.8 0.0
3.2 0.8 0.0
3.6 0.8 0.0
4.0 0.8 0.0
4.4 0.8 0.0
4.800000000000001 0.8 0.0
5.2 0.8 0.0
5.6000000000000005 0.8 0.0
6.0 0.8 0.0
6.4 0.8 0.0
6.800000000000001 0.8 0.0
7.2 0.8 0.0
7.6000000000000005 0.8 0.0
8.0 0.8 0.0
8.4 0.8 0.0
8.8 0.8 0.0
9.200000000000001 0.8 0.0
9.600000000000001 0.8 0.0
10.0 0.8 0.0
10.4 0.8 0.0
10.8 0.8 0.0
11.200000000000001 0.8 0.0
11.600000000000001 0.8 0.0
12.0 0.8 0.0
12.4 0.8 0.0
12.8 0.8 0.0
13.200000000000001 0.8 0.0
13.600000000000001 0.8 0.0
14.0 0.8 0.0
14.4 0.8 0.0
14.8 0.8 0.0
15.200000000000001 0.8 0.0
15.600000000000001 0.8 0.0
16.0 0.8 0.0
0.0 0.9 0.0
0.4 0.9 0.0
0.8 0.9 0.0
1.2000000000000002 0.9 0.0
1.6 0.9 0.0
2.0 0.9 0.0
2.4000000000000004 0.9 0.0
2.8000000000000003 0.9 0.0
3.2 0.9 0.0
3.6 0.9 0.0
4.0 0.9 0.0
4.4 0.9 0.0
4.800000000000001 0.9 0.0
5.2 0.9 0.0
5.6000000000000005 0.9 0.0
6.0 0.9 0.0
6.4 0.9 0.0
6.800000000000001 0.9 0.0
7.2 0.9 0.0
7.6000000000000005 0.9 0.0
8.0 0.9 0.0
8.4 0.9 0.0
8.8 0.9 0.0
9.200000000000001 0.9 0.0
9.600000000000001 0.9 0.0
10.0 0.9 0.0
10.4 0.9 0.0
10.8 0.9 0.0
11.200000000000001 0.9 0.0
11.600000000000001 0.9 0.0
12.0 0.9 0.0
12.4 0.9 0.0
12.8 0.9 0.0
13.200000000000001 0.9 0.0
13.600000000000001 0.9 0.0
14.0 0.9 0.0
14.4 0.9 0.0
14.8 0.9 0.0
15.200000000000001 0.9 0.0
15.600000000000001 0.9 0.0
16.0 0.9 0.0
0.0 1.0 0.0
0.4 1.0 0.0
0.8 1.0 0.0
1.2000000000000002 1.0 0.0
1.6 1.0 0.0
2.0 1.0 0.0
2.4000000000000004 1.0 0.0
2.8000000000000003 1.0 0.0
3.2 1.0 0.0
3.6 1.0 0.0
4.0 1.0 0.0
4.4 1.0 0.0
4.800000000000001 1.0 0.0
5.2 1.0 0.0
5.6000000000000005 1.0 0.0
6.0 1.0 0.0
6.4 1.0 0.0
6.800000000000001 1.0 0.0
7.2 1.0 0.0
7.6000000000000005 1.0 0.0
8.0 1.0 0.0
8.4 1.0 0.0
8.8 1.0 0.0
9.200000000000001 1.0 0.0
9.600000000000001 1.0 0.0
10.0 1.0 0.0
10.4 1.0 0.0
10.8 1.0 0.0
11.200000000000001 1.0 0.0
11.600000000000001 1.0 0.0
12.0 1.0 0.0
12.4 1.0 0.0
12.8 1.0 0.0
13.200000000000001 1.0 0.0
13.600000000000001 1.0 0.0
14.0 1.0 0.0
14.4 1.0 0.0
14.8 1.0 0.0
15.200000000000001 1.0 0.0
15.600000000000001 1.0 0.0
16.0 1.0 0.0
0.0 1.1 0.0
0.4 1.1 0.0
0.8 1.1 0.0
1.2000000000000002 1.1 0.0
1.6 1.1 0.0
[...]
POINT_DATA 861
SCALARS Disp float 2
LOOKUP_TABLE default
0.0 0.0
0.006139783194166396 -0.28509129690357643
0.007554335797289508 -0.5605021254467353
0.008357925872771812 -0.834771544142269
0.009421750303116181 -1.1086453122362876
0.011209586159907439 -1.381658723734776
0.014433732897872515 -1.6531877792079224
0.019977023674556185 -1.922444528790652
0.028881941849656693 -2.18843923958108
0.04228384661418998 -2.4498727405253953
0.06130896669137962 -2.704986100147015
0.08700357961619931 -2.9514817217636025
0.12030143703197743 -3.1865678862812503
0.16201359877877897 -3.4070905590019978
0.21282092928975033 -3.609624903563023
0.2732038339819405 -3.790552529730574
0.34332031620103637 -3.9461643504525155
0.4228643258219125 -4.07282312374464
0.5109496182397227 -4.16721464452232
0.6060683318702234 -4.2266000622663755
0.7058373229586521 -4.24914158577983
0.8056063140470755 -4.2266000622662405
0.9007250276775562 -4.167214644522048
0.9888103200953305 -4.072823123744246
1.0683543297161624 -3.946164350452021
1.1384708119352098 -3.79055252973001
1.198853716627351 -3.6096249035624037
1.2496610471382734 -3.4070905590013427
1.2913732088850258 -3.1865678862805793
1.3246710663007584 -2.951481721762937
1.3503656792255367 -2.7049861001463733
1.3693907993026926 -2.449872740524792
1.3827927040671988 -2.188439239580523
1.3916976222422803 -1.9224445287901504
1.3972409130189503 -1.6531877792074803
1.4004650597569077 -1.3816587237344022
1.4022528956136953 -1.1086453122359818
1.4033167200440384 -0.8347715441420348
1.4041203101195205 -0.5605021254465721
1.405534862722642 -0.2850912969034869
1.4116746459168052 0.0
0.0711101013556998 -0.002533081448761421
0.07543837521960191 -0.28538916845393747
0.07616895738135578 -0.560565566916815
0.07687836736804819 -0.8348641546884964
0.07780583691625191 -1.1088053727064213
0.07931854862521755 -1.382025795270627
0.08208606549748831 -1.6539603395104183
0.0869416805422851 -1.9238603804651881
0.09486340944537398 -2.1907643187183368
0.10688688432112638 -2.4533778267168556
0.12401670991068217 -2.709927287056178
0.1471716321792632 -2.9580909608300923
0.17717734018933198 -3.195051540615684
0.2147702621520689 -3.417628061878531
0.26057120900146585 -3.6223603054238067
0.31502837526683986 -3.8055713800167115
0.37830998372143376 -3.9634609964444887
0.45017848954952083 -4.09226831824718
0.5298737000554004 -4.188529451571502
0.6159482095573879 -4.2493272021427755
0.7058373229586357 -4.27245538614655
0.7957264363598778 -4.249327202142637
0.881800945861847 -4.188529451571222
0.9614961563676949 -4.092268318246776
1.0333646621957437 -3.9634609964439838
1.0966462706502944 -3.805571380016136
1.1511034369156241 -3.6223603054231766
1.1969043837649769 -3.4176280618778643
1.2344973057276698 -3.195051540615002
1.2645030137376976 -2.9580909608294164
1.2876579360062412 -2.7099272870555273
1.3047877615957666 -2.4533778267162454
1.3168112364714943 -2.190764318717775
1.3247329653745656 -1.9238603804646826
1.3295885804193504 -1.6539603395099738
1.3323560972916144 -1.382025795270252
1.333868809000577 -1.1088053727061151
1.3347962785487801 -0.8348641546882622
1.3355056885354724 -0.5605655669166517
1.3362362706972262 -0.2853891684538475
1.3405645445611225 -0.0025330814487588803
0.14119582062354083 -0.004553192584312362
0.14438712521016855 -0.285538405993294
0.1448032243765075 -0.560597038374182
0.14538079838020512 -0.8349453548183314
0.1461829019495741 -1.1089316120365802
0.14744825387021512 -1.3823162396583744
0.14977119543548983 -1.654601482817946
0.1539421632201606 -1.925077463478069
0.1608629611745134 -2.192803773582772
0.17147250958445018 -2.4564836260809457
0.1866598250633864 -2.714325128997374
0.20722649513789146 -2.9639835099015484
0.23389201154732958 -3.202621623514093
0.267306825451833 -3.4270384363271575
0.3080362526968054 -3.633743221890867
0.35649908846869705 -3.819009652906002
0.4128857630288098 -3.9789602240457405
0.477042985799812 -4.1097248074663
0.5483202166358372 -4.207693718262798
0.6253328624762091 -4.269730677047288
0.7058373229586196 -4.293383617657168
0.7863417834410249 -4.269730677047147
0.8633544292813798 -4.2076937182625125
0.9346316601173775 -4.109724807465888
0.9987888828883462 -3.978960224045226
1.0551755574484207 -3.819009652905416
1.1036383932202731 -3.633743221890226
1.1443678204652055 -3.4270384363264808
1.1777826343696702 -3.202621623513401
1.204448150779072 -2.9639835099008636
1.2250148208535439 -2.7143251289967156
1.240202136332453 -2.4564836260803293
1.2508116847423678 -2.192803773582205
1.2577324826967045 -1.9250774634775603
1.2619034504813649 -1.6546014828174997
1.264226392046634 -1.3823162396579984
1.2654917439672726 -1.1089316120362736
1.2662938475366412 -0.8349453548180975
1.2668714215403387 -0.5605970383740186
1.2672875207066776 -0.2855384059932037
1.2704788252932997 -0.004553192584307011
0.21073876278057876 -0.006180871919738131
0.21316211797213 -0.28564025821963934
0.21341499038377115 -0.5606141163704607
0.2138662581777373 -0.8350102727429447
0.2145482390084139 -1.109032846720165
0.2155955867932831 -1.3825388386020494
0.2174997818324967 -1.655115703103437
0.2209947595554785 -1.9260966549398544
0.22690852998343441 -2.194553547101936
0.2360836954014694 -2.4591827732872273
0.24929880132276264 -2.7181705306560904
0.26724267571485116 -2.9691503792208955
0.29053279453829317 -3.209268656027641
0.3197326042758668 -3.4353096984861105
0.35534191529282266 -3.64375997584879
0.3977572684255213 -3.830853601023558
0.44719550835893945 -3.9926503140365486
0.5035853653671466 -4.125183860476937
0.5663960917617209 -4.224698482536832
0.6344448108827306 -4.287864036179943
0.7058373229586039 -4.312046853001261
0.7772298350344724 -4.287864036179801
0.8452785541554672 -4.2246984825365415
0.9080892805500174 -4.1251838604765165
0.9644791375581947 -3.992650314036026
1.0139173774915802 -3.8308536010229632
1.056332730624244 -3.6437599758481403
1.091942041641165 -3.435309698485424
1.1211418513787044 -3.2092686560269406
1.1444319702021148 -2.9691503792202028
1.1623758445941745 -2.718170530655425
1.1755909505154438 -2.459182773286605
1.1847661159334595 -2.194553547101365
1.1906798863614012 -1.9260966549393423
1.194174864084374 -1.655115703102989
1.196079059123583 -1.3825388386016726
1.1971264069084506 -1.1090328467198585
1.197808387739127 -0.8350102727427108
1.198259655533093 -0.5606141163702976
1.1985125279447342 -0.2856402582195487
1.2009358831362802 -0.006180871919730234
0.27997304951191593 -0.007499219428884477
0.281819575944272 -0.2857189693794537
0.28198418636033906 -0.5606238719854001
0.2823296270868365 -0.8350603922413746
0.28289789397288145 -1.10911402300288
0.28375302921074436 -1.38270621767633
0.28527921650875204 -1.655511665711759
0.2881146159323226 -1.926921034041022
0.29302831632012183 -2.1960135045009945
0.3007632871708087 -2.461472006447307
0.3119922937684521 -2.7214588546708867
0.3272958156299045 -2.9735859855886964
0.347188819488271 -3.2149866947320582
0.37214950701329297 -3.4424353218986394
0.402616088493339 -3.6524020087053417
0.43894977108916006 -3.8410926861697865
0.48138871688403484 -4.004518596925974
0.5299464361536722 -4.138630991742883
0.5842540017303238 -4.239545850645225
0.6433946414890024 -4.303767786365432
0.7058373229585886 -4.3285102984817545
0.7682800044281705 -4.303767786365286
0.8274206441868358 -4.23954585064493
0.8817282097634658 -4.138630991742458
0.9302859290330779 -4.004518596925443
0.9727248748279245 -3.841092686169184
1.0090585574237152 -3.652402008704683
1.0395251389037312 -3.4424353218979458
1.064485826428724 -3.2149866947313503
1.0843788302870636 -2.9735859855879974
1.0996823521484915 -2.721458854670215
1.1109113587461144 -2.4614720064466797
1.1186463295967848 -2.196013504500419
1.1235600299845718 -1.9269210340405079
1.1263954294081349 -1.6555116657113096
1.127921616706139 -1.3827062176759526
1.1287767519440008 -1.1091140230025733
1.1293450188300458 -0.8350603922411408
1.129690459556543 -0.560623871985237
1.1298550699726102 -0.2857189693793627
1.1317015964049617 -0.007499219428874296
0.349003961590333 -0.008560802111591187
0.3503953139408913 -0.2857827830095137
0.3505088942307417 -0.5606310058128968
0.350767541560354 -0.8350975784295579
0.35122673283575345 -1.1091790825949324
0.35191448302536305 -1.382830115386129
0.35310283323214753 -1.6558034751366495
0.355323262367103 -1.9275572037805655
0.3592505356940201 -2.197186816986098
0.36555400290808765 -2.4633523205310626
0.3747986486118989 -2.72418945539877
0.3874593150146767 -2.9772890946701245
0.4039515328035938 -3.219773853454892
0.4246670760105822 -3.4484128541607273
0.4499794830132094 -3.6596665772079358
0.4802194598008836 -3.849720978698178
0.5156264693002933 -4.014552863540311
0.5562901107929482 -4.150051960699425
0.6020389357576824 -4.252233399731328
0.6522710340449511 -4.317462739536196
0.705837322958573 -4.3428126880756714
0.7594036118721915 -4.317462739536047
0.8096357101594486 -4.252233399731029
0.8553845351241642 -4.1500519606989945
0.8960481766167979 -4.014552863539776
0.9314551861161835 -3.849720978697569
0.9616951629038325 -3.659666577207271
0.9870075699064346 -3.4484128541600265
1.007723113113399 -3.219773853454178
1.0242153309022937 -2.9772890946694197
1.0368759973050512 -2.724189455398094
1.0461206430088452 -2.463352320530431
1.052424110222899 -2.1971868169855195
1.0563513835498064 -1.9275572037800492
1.0585718126847559 -1.655803475136199
1.0597601628915378 -1.3828301153857516
1.0604479130811466 -1.1091790825946255
1.060907104356546 -0.8350975784293241
1.0611657516861581 -0.5606310058127336
1.0612793319760085 -0.28578278300942245
1.0626706843265634 -0.008560802111579011
0.4178862347505262 -0.009405784025014534
0.418913714650016 -0.2858349952215287
0.4189945917136288 -0.5606378764617563
0.4191797827148629 -0.8351233586781024
0.4195325606551864 -1.1092304506340527
0.42007173494968963 -1.3829208194832197
0.420961882508619 -1.6560082709820672
0.4226201859340556 -1.9280204180034564
0.42560677165963273 -2.1980806716186585
0.43049926533369337 -2.4648286766044203
0.4377768760032762 -2.7263661602181397
0.4478085872125458 -2.9802627976825327
0.46091205528649254 -3.223632964911124
0.47739381284798876 -3.4532447605454104
0.49756263145689156 -3.6655550006501496
0.5217092236968383 -3.856737689475146
0.550070349712553 -4.022745887325186
0.5827955349929403 -4.159432333857076
0.6199072435751999 -4.262748693963981
0.6611616400791154 -4.328950096028764
0.7058373229585575 -4.354971066587752
0.7505130058379965 -4.328950096028614
0.7917674023419023 -4.262748693963678
0.8288791109241465 -4.159432333856642
0.8616042962045167 -4.022745887324645
0.8899654222202117 -3.8567376894745307
0.9141120144601378 -3.6655550006494795
0.9342808330690205 -3.4532447605447048
0.9507625906304983 -3.223632964910405
0.9638660587044269 -2.980262797681823
0.9738977699136804 -2.7263661602174594
0.9811753805832495 -2.4648286766037852
0.9860678742572994 -2.198080671618078
0.989054459982869 -1.928020418002938
0.9907127634083012 -1.656008270981616
0.9916029109672286 -1.3829208194828417
0.9921420852617314 -1.1092304506337456
0.9924948632020547 -0.8351233586778686
0.9926800542032888 -0.5606378764615931
0.9927609312669016 -0.2858349952214374
0.9937884111663887 -0.00940578402500077
0.48665612747090997 -0.010066591113098997
0.4873929334258043 -0.2858780880752443
0.48744918020137007 -0.5606449767750621
0.48756839205328834 -0.8351389913749762
0.4878162465485918 -1.109268625199147
0.48821598585775355 -1.382986511174079
0.48885056911715674 -1.656143201590091
0.4900023496906048 -1.9283315684227955
0.4921130072831952 -2.1987112459948603
0.49564562395482636 -2.4659110700579325
0.5009881289045864 -2.7279972208688537
0.5084190730625954 -2.9825149193023126
0.518164012159512 -3.2265720464792733
0.5304422736915856 -3.4569387167950802
0.5454925766053185 -3.6700740209611715
0.5635665224171824 -3.8621472645718526
0.5848916215424432 -4.029096638179206
0.6096494970680715 -4.1667596599178625
0.6380295638139191 -4.271068569291609
0.6701651117163862 -4.338209620678501
0.7058373229585415 -4.364980647285389
0.7415095342006943 -4.33820962067835
0.773645082103154 -4.2710685692913035
0.8020251488489898 -4.166759659917423
0.8267830243746042 -4.029096638178662
0.8481081234998504 -3.8621472645712323
0.8661820693116984 -3.6700740209604965
0.8812323722254163 -3.4569387167943706
0.8935106337574766 -3.226572046478551
0.9032555728543799 -2.9825149193015994
0.9106865170123767 -2.72799722086817
0.9160290219621267 -2.465911070057295
0.9195616386337502 -2.1987112459942777
0.9216722962263353 -1.9283315684222762
0.9228240767997803 -1.6561432015896396
0.9234586600591823 -1.3829865111737007
0.9238583993683437 -1.1092686251988402
0.924106253863647 -0.8351389913747422
0.9242254657155653 -0.5606449767748989
0.9242817124911311 -0.2858780880751528
0.9250185184460235 -0.010066591113083953
0.555336152435413 -0.010573494449799895
0.5558496574352502 -0.2859143145878326
0.5558799582344288 -0.5606514708273169
0.5559367642900274 -0.8351454699551033
0.5560819063288548 -1.1092930069444187
0.5563419454724148 -1.3830319526132195
0.5567530126291754 -1.6562264383360341
0.5574648614208869 -1.9285162938866758
0.5587764384074491 -2.199103940828543
0.5610264191955288 -2.4666190784140487
0.5644944576940897 -2.729097234190065
0.5693729842739074 -2.984059109664461
0.5758039844547121 -3.228605076617421
0.5839263471265523 -3.4595088345586045
0.5939044517170836 -3.673236129398595
0.6059392292816372 -3.8659600850205424
0.620253574597997 -4.033612966230001
0.6370581493229804 -4.172027698917628
0.6566150191824608 -4.277160874708741
0.6794060495648607 -4.345196548610002
0.7058373229585247 -4.372812024713804
0.7322685963521878 -4.3451965486098505
0.7550596267345825 -4.277160874708434
0.7746164965940543 -4.172027698917185
0.7914210713190278 -4.0336129662294535
0.8057354166353776 -3.865960085019919
0.8177701941999206 -3.673236129397917
0.8277482987904424 -3.4595088345578926
0.8358706614622747 -3.2286050766166947
0.8423016616430709 -2.984059109663745
0.8471801882228807 -2.7290972341893793
0.8506482267214349 -2.4666190784134088
0.85289820750951 -2.1991039408279596
0.854209784496069 -1.9285162938861558
0.8549216332877787 -1.6562264383355825
0.8553327004445388 -1.3830319526128412
0.8555927395880986 -1.1092930069441116
0.855737881626926 -0.8351454699548693
0.8557946876825243 -0.5606514708271538
0.8558249884817029 -0.2859143145877411
0.8563384934815388 -0.01057349444978389
0.6239426837024101 -0.01095657092409814
0.6242943983153008 -0.28594647312852767
0.6242937719520032 -0.5606555172356521
0.6242890171997402 -0.8351435396625655
0.624334239661793 -1.1093032350589316
0.6244507418386122 -1.3830578403685623
0.6246525152083571 -1.6562724138363973
0.6249904812212487 -1.9286060297074579
0.6255961558576557 -2.199295958095764
0.626663719365276 -2.4669860894609434
0.6283463514342704 -2.7296936819678836
0.6307470298181591 -2.984919210769378
0.633926623287619 -3.2297548206045135
0.6379532335023155 -3.460978477084635
0.6429201998113719 -3.675063574177163
0.6489650644221585 -3.8681940930893153
0.6562919199022172 -4.036310522390986
0.6651675255635163 -4.175248282392104
0.6759014359301887 -4.280998495344256
0.6890751988870701 -4.349836723275338
0.7058373229585078 -4.378400882599862
0.7225994470299452 -4.3498367232751844
0.7357732099868235 -4.280998495343947
0.7465071203534911 -4.175248282391659
0.7553827260147848 -4.036310522390436
0.7627095814948381 -3.8681940930886904
0.7687544461056203 -3.675063574176483
0.7737214124146726 -3.4609784770839216
0.7777480226293663 -3.229754820603787
0.7809276160988222 -2.9849192107686604
0.7833282944827075 -2.729693681967196
0.785010926551699 -2.466986089460303
0.7860784900593177 -2.1992959580951794
0.7866841646957236 -1.9286060297069374
0.7870221307086144 -1.6562724138359455
0.787223904078359 -1.383057840368184
0.7873404062551781 -1.1093032350586243
0.7873856287172311 -0.8351435396623315
0.7873808739649679 -0.560655517235489
0.78738024760167 -0.2859464731284362
0.78773196221456 -0.0109565709240814
0.6924935249431702 -0.0112420510042807
0.692730876753744 -0.28597778379103045
0.6926957225068718 -0.5606550923274283
0.6926297966516753 -0.8351336550256931
0.6925775981535874 -1.1092993711782717
0.6925506764390866 -1.3830633581320824
0.6925401117052773 -1.6562868029201114
0.6925361676864766 -1.9286322889510443
0.6925345617917914 -2.199345397271422
0.6925343870772677 -2.467078315608662
0.6925344703205403 -2.7298470903298906
0.692532602438043 -2.9851494201121627
0.692522388561648 -3.230073046764889
0.6925018957380593 -3.461397569163557
0.6924907364855649 -3.6756040701703716
0.6925655784208561 -3.868891452201506
0.6929065744709698 -4.037224035397691
0.6938452809012574 -4.176461804442437
0.6958345656336566 -4.2826111138191
0.6993802168934021 -4.352056571876175
0.70583732295849 -4.38163676679311
0.712294429023579 -4.3520565718760205
0.7158400802833231 -4.282611113818791
0.7178293650157209 -4.176461804441992
0.7187680714460085 -4.0372240353971405
0.7191090674961231 -3.868891452200881
0.7191839094314152 -3.6756040701696917
0.7191727501789221 -3.461397569162843
0.7191522573553356 -3.2300730467641614
0.7191420434789422 -2.985149420111444
0.719140175596446 -2.7298470903292036
0.7191402588397198 -2.4670783156080223
0.7191400841251968 -2.1993453972708377
0.719138478230512 -1.928632288950524
0.7191345342117115 -1.6562868029196591
0.7191239694779021 -1.383063358131704
0.7190970477634016 -1.1092993711779646
0.7190448492653136 -0.8351336550254591
0.718978923410117 -0.5606550923272651
0.7189437691632448 -0.285977783790939
0.7191811209738181 -0.011242051004263488
0.7610000100854787 -0.011455811704815072
0.7611579698388413 -0.2860093056122381
0.7610903492378128 -0.5606493175122671
0.7609643414403796 -0.8351159850306319
0.760817381698717 -1.1092817898931442
0.7606492526783134 -1.3830482326707414
0.760426826882348 -1.6562698781990515
0.7600806374165353 -1.9286051914664348
0.7594723783646609 -2.1992957206647126
0.7584049672055905 -2.466986088979577
0.7567226996226918 -2.7296934667326735
0.7543167007812881 -2.9849164293363444
0.7511159778192361 -3.2297473174679387
0.747049941431793 -3.4609689052208816
0.7420658308357987 -3.675071580674033
0.736177390556749 -3.8682754306905127
0.72952466110743 -4.036578987363945
0.7224358602516289 -4.175886910534535
0.7154125563840358 -4.282209442427446
0.7091777310969293 -4.351971201460165
0.7058373229584719 -4.382610100036431
0.7024969148200144 -4.35197120146001
0.6962620895329079 -4.282209442427137
0.6892387856653189 -4.175886910534089
0.6821499848095245 -4.036578987363395
0.6754972553602125 -3.8682754306898883
0.6696088150811692 -3.675071580673354
0.6646247044851814 -3.460968905220169
0.6605586680977453 -3.2297473174672127
0.6573579451357007 -2.9849164293356267
0.6549519462943029 -2.729693466731987
0.6532696787114093 -2.466986088978937
0.6522022675523422 -2.1992957206641286
0.6515940085004698 -1.9286051914659141
0.6512478190346582 -1.6562698781985992
0.6510253932386931 -1.383048232670363
0.6508572642182897 -1.109281789892837
0.6507103044766273 -0.8351159850303976
0.650584296679194 -0.560649317512104
0.6505166760781655 -0.28600930561214666
0.650674635831528 -0.011455811704797612
0.8294731610096349 -0.011618327856547756
0.829577974107511 -0.2860394909817281
0.8294814559853597 -0.5606385245215098
0.8292981325703191 -0.8350906660047763
0.8290597925342063 -1.1092510969267557
0.828754169615015 -1.3830129119773888
0.8283226821827555 -1.6562211069433228
0.827603462365746 -1.9285144011672564
0.8262910703911575 -2.1991035769511846
0.8240424081750304 -2.4666192266798603
0.8205739963004862 -2.7290963775050634
0.8156893475921527 -2.9840531640476655
0.8092398958795575 -3.2285900475272546
0.8010856905731928 -3.459490517110684
0.791100636978789 -3.6732544996116534
0.7792261790425433 -3.8661268573333727
0.765556561489413 -4.0341492621593815
0.750402218165523 -4.173279404834406
0.7343565975148023 -4.279586362326127
0.7186543502807868 -4.349698948915362
0.7058373229584545 -4.381498541096524
0.6930202956361228 -4.349698948915208
0.6773180484021097 -4.279586362325818
0.661272427751396 -4.173279404833964
0.6461180844275178 -4.034149262158835