# vtk DataFile Version 3.0
Some data
ASCII
DATASET UNSTRUCTURED_GRID
POINTS 861 float
0.0 0.0 0.0
0.4 0.0 0.0
0.8 0.0 0.0
1.2000000000000002 0.0 0.0
1.6 0.0 0.0
2.0 0.0 0.0
2.4000000000000004 0.0 0.0
2.8000000000000003 0.0 0.0
3.2 0.0 0.0
3.6 0.0 0.0
4.0 0.0 0.0
4.4 0.0 0.0
4.800000000000001 0.0 0.0
5.2 0.0 0.0
5.6000000000000005 0.0 0.0
6.0 0.0 0.0
6.4 0.0 0.0
6.800000000000001 0.0 0.0
7.2 0.0 0.0
7.6000000000000005 0.0 0.0
8.0 0.0 0.0
8.4 0.0 0.0
8.8 0.0 0.0
9.200000000000001 0.0 0.0
9.600000000000001 0.0 0.0
10.0 0.0 0.0
10.4 0.0 0.0
10.8 0.0 0.0
11.200000000000001 0.0 0.0
11.600000000000001 0.0 0.0
12.0 0.0 0.0
12.4 0.0 0.0
12.8 0.0 0.0
13.200000000000001 0.0 0.0
13.600000000000001 0.0 0.0
14.0 0.0 0.0
14.4 0.0 0.0
14.8 0.0 0.0
15.200000000000001 0.0 0.0
15.600000000000001 0.0 0.0
16.0 0.0 0.0
0.0 0.1 0.0
0.4 0.1 0.0
0.8 0.1 0.0
1.2000000000000002 0.1 0.0
1.6 0.1 0.0
2.0 0.1 0.0
2.4000000000000004 0.1 0.0
2.8000000000000003 0.1 0.0
3.2 0.1 0.0
3.6 0.1 0.0
4.0 0.1 0.0
4.4 0.1 0.0
4.800000000000001 0.1 0.0
5.2 0.1 0.0
5.6000000000000005 0.1 0.0
6.0 0.1 0.0
6.4 0.1 0.0
6.800000000000001 0.1 0.0
7.2 0.1 0.0
7.6000000000000005 0.1 0.0
8.0 0.1 0.0
8.4 0.1 0.0
8.8 0.1 0.0
9.200000000000001 0.1 0.0
9.600000000000001 0.1 0.0
10.0 0.1 0.0
10.4 0.1 0.0
10.8 0.1 0.0
11.200000000000001 0.1 0.0
11.600000000000001 0.1 0.0
12.0 0.1 0.0
12.4 0.1 0.0
12.8 0.1 0.0
13.200000000000001 0.1 0.0
13.600000000000001 0.1 0.0
14.0 0.1 0.0
14.4 0.1 0.0
14.8 0.1 0.0
15.200000000000001 0.1 0.0
15.600000000000001 0.1 0.0
16.0 0.1 0.0
0.0 0.2 0.0
0.4 0.2 0.0
0.8 0.2 0.0
1.2000000000000002 0.2 0.0
1.6 0.2 0.0
2.0 0.2 0.0
2.4000000000000004 0.2 0.0
2.8000000000000003 0.2 0.0
3.2 0.2 0.0
3.6 0.2 0.0
4.0 0.2 0.0
4.4 0.2 0.0
4.800000000000001 0.2 0.0
5.2 0.2 0.0
5.6000000000000005 0.2 0.0
6.0 0.2 0.0
6.4 0.2 0.0
6.800000000000001 0.2 0.0
7.2 0.2 0.0
7.6000000000000005 0.2 0.0
8.0 0.2 0.0
8.4 0.2 0.0
8.8 0.2 0.0
9.200000000000001 0.2 0.0
9.600000000000001 0.2 0.0
10.0 0.2 0.0
10.4 0.2 0.0
10.8 0.2 0.0
11.200000000000001 0.2 0.0
11.600000000000001 0.2 0.0
12.0 0.2 0.0
12.4 0.2 0.0
12.8 0.2 0.0
13.200000000000001 0.2 0.0
13.600000000000001 0.2 0.0
14.0 0.2 0.0
14.4 0.2 0.0
14.8 0.2 0.0
15.200000000000001 0.2 0.0
15.600000000000001 0.2 0.0
16.0 0.2 0.0
0.0 0.30000000000000004 0.0
0.4 0.30000000000000004 0.0
0.8 0.30000000000000004 0.0
1.2000000000000002 0.30000000000000004 0.0
1.6 0.30000000000000004 0.0
2.0 0.30000000000000004 0.0
2.4000000000000004 0.30000000000000004 0.0
2.8000000000000003 0.30000000000000004 0.0
3.2 0.30000000000000004 0.0
3.6 0.30000000000000004 0.0
4.0 0.30000000000000004 0.0
4.4 0.30000000000000004 0.0
4.800000000000001 0.30000000000000004 0.0
5.2 0.30000000000000004 0.0
5.6000000000000005 0.30000000000000004 0.0
6.0 0.30000000000000004 0.0
6.4 0.30000000000000004 0.0
6.800000000000001 0.30000000000000004 0.0
7.2 0.30000000000000004 0.0
7.6000000000000005 0.30000000000000004 0.0
8.0 0.30000000000000004 0.0
8.4 0.30000000000000004 0.0
8.8 0.30000000000000004 0.0
9.200000000000001 0.30000000000000004 0.0
9.600000000000001 0.30000000000000004 0.0
10.0 0.30000000000000004 0.0
10.4 0.30000000000000004 0.0
10.8 0.30000000000000004 0.0
11.200000000000001 0.30000000000000004 0.0
11.600000000000001 0.30000000000000004 0.0
12.0 0.30000000000000004 0.0
12.4 0.30000000000000004 0.0
12.8 0.30000000000000004 0.0
13.200000000000001 0.30000000000000004 0.0
13.600000000000001 0.30000000000000004 0.0
14.0 0.30000000000000004 0.0
14.4 0.30000000000000004 0.0
14.8 0.30000000000000004 0.0
15.200000000000001 0.30000000000000004 0.0
15.600000000000001 0.30000000000000004 0.0
16.0 0.30000000000000004 0.0
0.0 0.4 0.0
0.4 0.4 0.0
0.8 0.4 0.0
1.2000000000000002 0.4 0.0
1.6 0.4 0.0
2.0 0.4 0.0
2.4000000000000004 0.4 0.0
2.8000000000000003 0.4 0.0
3.2 0.4 0.0
3.6 0.4 0.0
4.0 0.4 0.0
4.4 0.4 0.0
4.800000000000001 0.4 0.0
5.2 0.4 0.0
5.6000000000000005 0.4 0.0
6.0 0.4 0.0
6.4 0.4 0.0
6.800000000000001 0.4 0.0
7.2 0.4 0.0
7.6000000000000005 0.4 0.0
8.0 0.4 0.0
8.4 0.4 0.0
8.8 0.4 0.0
9.200000000000001 0.4 0.0
9.600000000000001 0.4 0.0
10.0 0.4 0.0
10.4 0.4 0.0
10.8 0.4 0.0
11.200000000000001 0.4 0.0
11.600000000000001 0.4 0.0
12.0 0.4 0.0
12.4 0.4 0.0
12.8 0.4 0.0
13.200000000000001 0.4 0.0
13.600000000000001 0.4 0.0
14.0 0.4 0.0
14.4 0.4 0.0
14.8 0.4 0.0
15.200000000000001 0.4 0.0
15.600000000000001 0.4 0.0
16.0 0.4 0.0
0.0 0.5 0.0
0.4 0.5 0.0
0.8 0.5 0.0
1.2000000000000002 0.5 0.0
1.6 0.5 0.0
2.0 0.5 0.0
2.4000000000000004 0.5 0.0
2.8000000000000003 0.5 0.0
3.2 0.5 0.0
3.6 0.5 0.0
4.0 0.5 0.0
4.4 0.5 0.0
4.800000000000001 0.5 0.0
5.2 0.5 0.0
5.6000000000000005 0.5 0.0
6.0 0.5 0.0
6.4 0.5 0.0
6.800000000000001 0.5 0.0
7.2 0.5 0.0
7.6000000000000005 0.5 0.0
8.0 0.5 0.0
8.4 0.5 0.0
8.8 0.5 0.0
9.200000000000001 0.5 0.0
9.600000000000001 0.5 0.0
10.0 0.5 0.0
10.4 0.5 0.0
10.8 0.5 0.0
11.200000000000001 0.5 0.0
11.600000000000001 0.5 0.0
12.0 0.5 0.0
12.4 0.5 0.0
12.8 0.5 0.0
13.200000000000001 0.5 0.0
13.600000000000001 0.5 0.0
14.0 0.5 0.0
14.4 0.5 0.0
14.8 0.5 0.0
15.200000000000001 0.5 0.0
15.600000000000001 0.5 0.0
16.0 0.5 0.0
0.0 0.6000000000000001 0.0
0.4 0.6000000000000001 0.0
0.8 0.6000000000000001 0.0
1.2000000000000002 0.6000000000000001 0.0
1.6 0.6000000000000001 0.0
2.0 0.6000000000000001 0.0
2.4000000000000004 0.6000000000000001 0.0
2.8000000000000003 0.6000000000000001 0.0
3.2 0.6000000000000001 0.0
3.6 0.6000000000000001 0.0
4.0 0.6000000000000001 0.0
4.4 0.6000000000000001 0.0
4.800000000000001 0.6000000000000001 0.0
5.2 0.6000000000000001 0.0
5.6000000000000005 0.6000000000000001 0.0
6.0 0.6000000000000001 0.0
6.4 0.6000000000000001 0.0
6.800000000000001 0.6000000000000001 0.0
7.2 0.6000000000000001 0.0
7.6000000000000005 0.6000000000000001 0.0
8.0 0.6000000000000001 0.0
8.4 0.6000000000000001 0.0
8.8 0.6000000000000001 0.0
9.200000000000001 0.6000000000000001 0.0
9.600000000000001 0.6000000000000001 0.0
10.0 0.6000000000000001 0.0
10.4 0.6000000000000001 0.0
10.8 0.6000000000000001 0.0
11.200000000000001 0.6000000000000001 0.0
11.600000000000001 0.6000000000000001 0.0
12.0 0.6000000000000001 0.0
12.4 0.6000000000000001 0.0
12.8 0.6000000000000001 0.0
13.200000000000001 0.6000000000000001 0.0
13.600000000000001 0.6000000000000001 0.0
14.0 0.6000000000000001 0.0
14.4 0.6000000000000001 0.0
14.8 0.6000000000000001 0.0
15.200000000000001 0.6000000000000001 0.0
15.600000000000001 0.6000000000000001 0.0
16.0 0.6000000000000001 0.0
0.0 0.7000000000000001 0.0
0.4 0.7000000000000001 0.0
0.8 0.7000000000000001 0.0
1.2000000000000002 0.7000000000000001 0.0
1.6 0.7000000000000001 0.0
2.0 0.7000000000000001 0.0
2.4000000000000004 0.7000000000000001 0.0
2.8000000000000003 0.7000000000000001 0.0
3.2 0.7000000000000001 0.0
3.6 0.7000000000000001 0.0
4.0 0.7000000000000001 0.0
4.4 0.7000000000000001 0.0
4.800000000000001 0.7000000000000001 0.0
5.2 0.7000000000000001 0.0
5.6000000000000005 0.7000000000000001 0.0
6.0 0.7000000000000001 0.0
6.4 0.7000000000000001 0.0
6.800000000000001 0.7000000000000001 0.0
7.2 0.7000000000000001 0.0
7.6000000000000005 0.7000000000000001 0.0
8.0 0.7000000000000001 0.0
8.4 0.7000000000000001 0.0
8.8 0.7000000000000001 0.0
9.200000000000001 0.7000000000000001 0.0
9.600000000000001 0.7000000000000001 0.0
10.0 0.7000000000000001 0.0
10.4 0.7000000000000001 0.0
10.8 0.7000000000000001 0.0
11.200000000000001 0.7000000000000001 0.0
11.600000000000001 0.7000000000000001 0.0
12.0 0.7000000000000001 0.0
12.4 0.7000000000000001 0.0
12.8 0.7000000000000001 0.0
13.200000000000001 0.7000000000000001 0.0
13.600000000000001 0.7000000000000001 0.0
14.0 0.7000000000000001 0.0
14.4 0.7000000000000001 0.0
14.8 0.7000000000000001 0.0
15.200000000000001 0.7000000000000001 0.0
15.600000000000001 0.7000000000000001 0.0
16.0 0.7000000000000001 0.0
0.0 0.8 0.0
0.4 0.8 0.0
0.8 0.8 0.0
1.2000000000000002 0.8 0.0
1.6 0.8 0.0
2.0 0.8 0.0
2.4000000000000004 0.8 0.0
2.8000000000000003 0.8 0.0
3.2 0.8 0.0
3.6 0.8 0.0
4.0 0.8 0.0
4.4 0.8 0.0
4.800000000000001 0.8 0.0
5.2 0.8 0.0
5.6000000000000005 0.8 0.0
6.0 0.8 0.0
6.4 0.8 0.0
6.800000000000001 0.8 0.0
7.2 0.8 0.0
7.6000000000000005 0.8 0.0
8.0 0.8 0.0
8.4 0.8 0.0
8.8 0.8 0.0
9.200000000000001 0.8 0.0
9.600000000000001 0.8 0.0
10.0 0.8 0.0
10.4 0.8 0.0
10.8 0.8 0.0
11.200000000000001 0.8 0.0
11.600000000000001 0.8 0.0
12.0 0.8 0.0
12.4 0.8 0.0
12.8 0.8 0.0
13.200000000000001 0.8 0.0
13.600000000000001 0.8 0.0
14.0 0.8 0.0
14.4 0.8 0.0
14.8 0.8 0.0
15.200000000000001 0.8 0.0
15.600000000000001 0.8 0.0
16.0 0.8 0.0
0.0 0.9 0.0
0.4 0.9 0.0
0.8 0.9 0.0
1.2000000000000002 0.9 0.0
1.6 0.9 0.0
2.0 0.9 0.0
2.4000000000000004 0.9 0.0
2.8000000000000003 0.9 0.0
3.2 0.9 0.0
3.6 0.9 0.0
4.0 0.9 0.0
4.4 0.9 0.0
4.800000000000001 0.9 0.0
5.2 0.9 0.0
5.6000000000000005 0.9 0.0
6.0 0.9 0.0
6.4 0.9 0.0
6.800000000000001 0.9 0.0
7.2 0.9 0.0
7.6000000000000005 0.9 0.0
8.0 0.9 0.0
8.4 0.9 0.0
8.8 0.9 0.0
9.200000000000001 0.9 0.0
9.600000000000001 0.9 0.0
10.0 0.9 0.0
10.4 0.9 0.0
10.8 0.9 0.0
11.200000000000001 0.9 0.0
11.600000000000001 0.9 0.0
12.0 0.9 0.0
12.4 0.9 0.0
12.8 0.9 0.0
13.200000000000001 0.9 0.0
13.600000000000001 0.9 0.0
14.0 0.9 0.0
14.4 0.9 0.0
14.8 0.9 0.0
15.200000000000001 0.9 0.0
15.600000000000001 0.9 0.0
16.0 0.9 0.0
0.0 1.0 0.0
0.4 1.0 0.0
0.8 1.0 0.0
1.2000000000000002 1.0 0.0
1.6 1.0 0.0
2.0 1.0 0.0
2.4000000000000004 1.0 0.0
2.8000000000000003 1.0 0.0
3.2 1.0 0.0
3.6 1.0 0.0
4.0 1.0 0.0
4.4 1.0 0.0
4.800000000000001 1.0 0.0
5.2 1.0 0.0
5.6000000000000005 1.0 0.0
6.0 1.0 0.0
6.4 1.0 0.0
6.800000000000001 1.0 0.0
7.2 1.0 0.0
7.6000000000000005 1.0 0.0
8.0 1.0 0.0
8.4 1.0 0.0
8.8 1.0 0.0
9.200000000000001 1.0 0.0
9.600000000000001 1.0 0.0
10.0 1.0 0.0
10.4 1.0 0.0
10.8 1.0 0.0
11.200000000000001 1.0 0.0
11.600000000000001 1.0 0.0
12.0 1.0 0.0
12.4 1.0 0.0
12.8 1.0 0.0
13.200000000000001 1.0 0.0
13.600000000000001 1.0 0.0
14.0 1.0 0.0
14.4 1.0 0.0
14.8 1.0 0.0
15.200000000000001 1.0 0.0
15.600000000000001 1.0 0.0
16.0 1.0 0.0
0.0 1.1 0.0
0.4 1.1 0.0
0.8 1.1 0.0
1.2000000000000002 1.1 0.0
1.6 1.1 0.0
[...]
POINT_DATA 861
SCALARS Disp float 2
LOOKUP_TABLE default
0.0 0.0
0.006461029277674508 -0.32101479274187367
0.007964764353549892 -0.631892408777793
0.008787920693549691 -0.9415356373918209
0.009904924064465434 -1.2507488846847254
0.01185150283988538 -1.5590102591723747
0.015438433490804294 -1.8656146535459175
0.02168129465706133 -2.1696714650121143
0.0317801226140109 -2.47005622458645
0.04703737703920323 -2.765280189543195
0.06873583827272103 -3.053321786219155
0.09805311037644913 -3.3315534239621623
0.13602339033458802 -3.596805816874329
0.1835250758795157 -3.8455153857132256
0.24126750117421947 -4.07382370787281
0.30971666053664265 -4.277667732137395
0.3889728863902961 -4.452903436675642
0.4786348878625681 -4.595496585780201
0.5776939098970285 -4.701803069615435
0.6845026333534556 -4.768827839562144
0.796467496008162 -4.79459587578357
0.9084323586628618 -4.768827839561993
1.015241082119266 -4.701803069615128
1.114300104153687 -4.595496585779757
1.2039621056259107 -4.452903436675087
1.2832183314795094 -4.27766773213676
1.3516674908418767 -4.073823707872114
1.4094099161365254 -3.845515385712489
1.4569116016813985 -3.596805816873574
1.4948818816394849 -3.3315534239614135
1.5241991537431676 -3.053321786218433
1.5458976149766461 -2.7652801895425156
1.5611548694018085 -2.470056224585823
1.5712536973587359 -2.1696714650115494
1.577496558524978 -1.8656146535454203
1.5810834891758876 -1.5590102591719541
1.5830300679513032 -1.250748884684382
1.5841470713222179 -0.9415356373915587
1.5849702276622173 -0.6318924087776103
1.5864739627380913 -0.32101479274177414
1.592934992015762 0.0
0.08006910357127145 -0.002645367742768562
0.08465563663619424 -0.32134581454578476
0.08542610182393606 -0.6319577954368896
0.08614921054976665 -0.9416316710544934
0.08711728451103044 -1.250925388253553
0.0887577427395549 -1.5594272181186752
0.09183342896663335 -1.8665000437609376
0.09730275389359075 -2.171298484338837
0.1062897374554285 -2.472730080266419
0.11998033344137086 -2.7693107305777795
0.1395182078373432 -3.058999678395254
0.16594025014308827 -3.339138505962875
0.20016383886179798 -3.606524688090622
0.2429855800918887 -3.8575590634022436
0.2950514112229519 -4.088337995147594
0.3567967801831053 -4.294729693192143
0.4283407434366686 -4.472489434626396
0.5093648784909398 -4.617451657688789
0.5989995499181228 -4.725816000639608
0.6956418459315845 -4.794398521425382
0.7964674960081434 -4.820815593621461
0.8972931460846958 -4.794398521425228
0.9939354420981366 -4.725816000639294
1.0835701135252844 -4.617451657688335
1.164594248579514 -4.472489434625827
1.2361382118330284 -4.294729693191495
1.2978835807931315 -4.088337995146884
1.349949411924145 -3.8575590634014936
1.3927711531541864 -3.606524688089854
1.4269947418728492 -3.339138505962115
1.453416784178553 -3.0589996783945215
1.4729546585744904 -2.7693107305770925
1.4866452545604054 -2.4727300802657863
1.495632238122223 -2.1712984843382688
1.501101563049167 -1.8665000437604378
1.504177249276237 -1.5594272181182534
1.505817707504758 -1.2509253882532092
1.506785781466021 -0.9416316710542312
1.5075088901918516 -0.6319577954367069
1.5082793553795932 -0.32134581454568484
1.51286588844451 -0.0026453677427659876
0.15907263313869707 -0.004763384917760212
0.16247061824744502 -0.3215135441941588
0.16290687218983163 -0.6319880035003556
0.16349398037892765 -0.9417153449877191
0.1643252780415849 -1.2510633040557047
0.1656903537047934 -1.5597573932261575
0.16826904666764844 -1.867236742135766
0.17296762087531609 -2.172700298208942
0.18082158119052158 -2.4750789764225005
0.192903825649714 -2.7728852991170188
0.21022624329689651 -3.064056279224499
0.23369565105143145 -3.3459049801414817
0.26411404461023696 -3.615202191433324
0.30218586641496475 -3.868320574920837
0.34849851327491255 -4.10131738953979
0.40346174410791086 -4.310002805785175
0.46722706934291147 -4.490046953642023
0.5395731190824542 -4.637167506547818
0.6197446319666285 -4.747408855370427
0.7061963909970694 -4.81735059858107
0.7964674960081254 -4.844343620179443
0.8867386010191749 -4.817350598580911
0.973190360049597 -4.7474088553701055
1.0533618729337406 -4.637167506547354
1.1257079226732467 -4.490046953641445
1.189473247908204 -4.3100028057845154
1.244436478741158 -4.101317389539068
1.2907491256010615 -3.8683205749200753
1.3288209474057449 -3.615202191432544
1.3592393409645092 -3.3459049801407112
1.382708748719007 -3.0640562792237573
1.4000311663661589 -2.7728852991163246
1.4121134108253266 -2.4750789764218624
1.4199673711405139 -2.1727002982083694
1.4246659453481698 -1.867236742135264
1.427244638311018 -1.5597573932257347
1.4286097139742235 -1.2510633040553605
1.4294410116368803 -0.9417153449874569
1.4300281198259763 -0.631988003500173
1.430464373768363 -0.3215135441940585
1.4338623588771051 -0.00476338491775475
0.23750939420942752 -0.00647435872126507
0.24010041649816366 -0.3216276621571372
0.24036455802322776 -0.6320040418010782
0.24082258891594355 -0.94178141095566
0.2415245372021133 -1.2511722555176361
0.2426464623546617 -1.5600103665182312
0.24475674915696963 -1.8678296680858637
0.24869436982556326 -2.1738774613957927
0.25540768193519225 -2.4770979343916286
0.26585777746573963 -2.7759951658508015
0.2809302556039743 -3.0684808228670866
0.30140631883459357 -3.3518418024361156
0.32797665689910127 -3.622826436951548
0.3612527846826329 -3.877785422750383
0.4017549523965516 -4.112745778051671
0.44987432744773515 -4.323471273241121
0.5057989879363944 -4.505562601426351
0.5694010593450448 -4.654633374958215
0.6400539763871618 -4.766570578010605
0.7164340383256008 -4.837746913321092
0.7964674960081076 -4.865321058994812
0.8765009536906088 -4.83774691332093
0.9528810156290308 -4.7665705780102785
1.0235339326711212 -4.654633374957743
1.0871360040797386 -4.505562601425763
1.1430606645683612 -4.323471273240451
1.1911800396195056 -4.1127457780509395
1.2316822073333853 -3.8777854227496107
1.264958335116878 -3.622826436950759
1.2915286731813496 -3.3518418024353362
1.3120047364119367 -3.068480822866337
1.3270772145501446 -2.7759951658501003
1.3375273100806702 -2.4770979343909856
1.3442406221902834 -2.1738774613952168
1.3481782428588667 -1.8678296680853594
1.3502885296611689 -1.5600103665178076
1.3514104548137151 -1.2511722555172917
1.3521124030998848 -0.9417814109553977
1.3525704339926006 -0.6320040418008956
1.3528345755176647 -0.3216276621570365
1.3554255978063956 -0.006474358721256925
0.31562460756713007 -0.007863101116227416
0.31760680198610297 -0.32171541206013016
0.31777830475261193 -0.6320131157661777
0.31812875076922764 -0.9418320720926932
0.31871098867725073 -1.251258164404884
0.3196188187572755 -1.5601996078572884
0.3213046872515672 -1.8682880827418804
0.3245000957335965 -2.174833145603727
0.33008036122520334 -2.4787864740648913
0.33889169942022196 -2.7786364118413234
0.3516983946912407 -3.0722676714286146
0.36916009097919095 -3.356942028768948
0.3918556917458173 -3.6293897765196506
0.42030623294107833 -3.8859451952915784
0.45496870700927927 -4.122612703398761
0.4962026231976156 -4.335122476206056
0.5442259653238295 -4.519021228058784
0.5990086195879427 -4.669832402063226
0.6601046494850757 -4.78330456834397
0.7264825333418476 -4.855635118668301
0.7964674960080904 -4.883823036736949
0.8664524586743276 -4.855635118668137
0.9328303425310843 -4.783304568343638
0.9939263724281943 -4.669832402062747
1.0487090266922792 -4.519021228058189
1.0967323688184616 -4.335122476205377
1.137966285006764 -4.12261270339802
1.1726287590749316 -3.8859451952907977
1.2010793002701594 -3.6293897765188534
1.2237749010367545 -3.3569420287681604
1.241236597324678 -3.0722676714278583
1.2540432925956733 -2.778636411840617
1.2628546307906732 -2.478786474064244
1.2684348962822667 -2.1748331456031478
1.2716303047642872 -1.8682880827413748
1.2733161732585747 -1.5601996078568643
1.2742240033385979 -1.2512581644045395
1.274806241246621 -0.9418320720924308
1.2751566872632365 -0.6320131157659953
1.2753281900297457 -0.32171541206002907
1.277310384448714 -0.007863101116216901
0.39352848180942773 -0.00898380432795077
0.39502776595327166 -0.3217857486817509
0.3951459512622073 -0.6320198978998797
0.39540865628263366 -0.9418696559763825
0.3958783617567884 -1.2513259601392224
0.3966013497519239 -1.5603381438344956
0.3979069697265705 -1.8686268317798924
0.40040812230164136 -2.1755745214723223
0.4048718578360286 -2.480147961447257
0.41205467719893885 -2.7808100083247456
0.42259806847412024 -3.0754159071983502
0.4370424428283235 -3.361203759511734
0.4558575340176454 -3.634889306164054
0.4794730216811352 -3.8927962683286794
0.5082807189750054 -4.130914021171326
0.5426112609886433 -4.344948497184047
0.5826912544535566 -4.530407955932459
0.6285827973805264 -4.682748402884759
0.6800619896048652 -4.797609178579294
0.7364429880437967 -4.871040112049766
0.796467496008073 -4.899894208856055
0.8564920039723445 -4.871040112049599
0.9128730024112627 -4.797609178578958
0.964352194635582 -4.682748402884274
1.0102437375625277 -4.530407955931857
1.0503237310274143 -4.34494849718336
1.0846542730410238 -4.130914021170578
1.1134619703348665 -3.8927962683278907
1.137077457998329 -3.634889306163249
1.1558925491876246 -3.3612037595109396
1.1703369235418055 -3.0754159071975886
1.1808803148169675 -2.780810008324034
1.1880631341798624 -2.4801479614466055
1.1925268697142382 -2.175574521471741
1.1950280222893024 -1.8686268317793855
1.196333642263946 -1.560338143834071
1.1970566302590806 -1.2513259601388773
1.197526335733235 -0.9418696559761199
1.1977890407536615 -0.6320198978996973
1.1979072260625971 -0.32178574868164955
1.1994065102064373 -0.008983804327938225
0.4712777485773239 -0.009877847729858343
0.47238891766436936 -0.32184236403386823
0.4724732453308251 -0.632026716806166
0.4726620685120099 -0.9418958071211275
0.47302335667351914 -1.2513789262759942
0.47358512389924073 -1.5604379463247162
0.4745553159860134 -1.868864262769269
0.47641978196202794 -2.1761175239583266
0.47981707941349344 -2.4811903560476027
0.48539629159324066 -2.782521515442271
0.4936970403353714 -3.0779297730732904
0.5051405545693706 -3.3646302061527957
0.5200882146427486 -3.639327552853857
0.5388793269900218 -3.8983405085461507
0.5618407591504336 -4.137650287733915
0.5892654831247619 -4.3529470784709146
0.6213818253587557 -4.539713181837228
0.6583275597144576 -4.693364662980107
0.7001024276438009 -4.809471223584968
0.7464141356191517 -4.88396454617592
0.7964674960080553 -4.913554486995309
0.8465208563969552 -4.883964546175751
0.8928325643722949 -4.809471223584627
0.9346074323016219 -4.693364662979617
0.9715531666573044 -4.539713181836619
1.0036695088912764 -4.352947078470222
1.0310942328655814 -4.13765028773316
1.054055665025971 -3.8983405085453553
1.072846777373223 -3.6393275528530467
1.0877944374465807 -3.364630206151996
1.0992379516805617 -3.077929773072524
1.1075387004226769 -2.7825215154415557
1.1131179126024118 -2.481190356046949
1.116515210053869 -2.176117523957743
1.1183796760298783 -1.8688642627687615
1.1193498681166487 -1.560437946324291
1.11991163534237 -1.2513789262756494
1.120272923503879 -0.941895807120865
1.1204617466850637 -0.6320267168059835
1.1205460743515194 -0.32184236403376665
1.121657243438562 -0.009877847729844147
0.5489096083574698 -0.010578792237158949
0.5497092183810166 -0.32188800151555613
0.5497685196727395 -0.6320340496453907
0.5498911713856234 -0.9419117670709687
0.5501458112056079 -1.2514182508161453
0.5505599332645477 -1.5605088498092419
0.5512437831914944 -1.8690196598392355
0.5525338345960457 -2.1764842144772767
0.5549354422225975 -2.481930853098163
0.5589684973760572 -2.78378215912603
0.5650649682788689 -3.079818639092376
0.5735413219084753 -3.367230101203348
0.5846561595302674 -3.6427130378239667
0.5986554462080328 -3.9025855848748296
0.61579562737195 -4.142827920037889
0.6363345593068962 -4.3591221268476925
0.660495460335418 -4.546934285227399
0.6884581576667815 -4.701665876164866
0.7204191919729086 -4.818864796780679
0.7565064393935144 -4.894386877364326
0.7964674960080375 -4.924799128460845
0.8364285526225572 -4.8943868773641555
0.8725158000431548 -4.818864796780335
0.9044768343492688 -4.701665876164373
0.9324395316806176 -4.546934285226786
0.9566004327091222 -4.359122126846994
0.9771393646440506 -4.142827920037129
0.9942795458079515 -3.9025855848740294
1.0082788324857017 -3.6427130378231523
1.019393670107479 -3.3672301012025443
1.0278700237370715 -3.0798186390916062
1.033966494639872 -2.7837821591253125
1.037999549793323 -2.481930853097507
1.0404011574198688 -2.1764842144766914
1.0416912088244166 -1.8690196598387272
1.0423750587513618 -1.5605088498088169
1.0427891808103011 -1.2514182508158007
1.0430438206302854 -0.941911767070706
1.0431664723431693 -0.6320340496452082
1.0432257736348922 -0.3218880015154545
1.0440253836584368 -0.010578792237143399
0.626447441095376 -0.011117789135472482
0.6270058806577621 -0.3219251900241606
0.6270394346990239 -0.6320410515493908
0.6270995732992731 -0.9419184730559397
0.6272492616176923 -1.2514435675317508
0.6275187495912086 -1.5605570895171075
0.6279557344305439 -1.8691138733968935
0.6287465731308111 -2.176702491435263
0.6302377964961415 -2.4823961936734755
0.6328100570569086 -2.784613057494971
0.6367717586384424 -3.0810988771145897
0.6423379260084902 -3.3690187748289704
0.6496723287084359 -3.645061107541366
0.658933207687454 -3.9055463388268064
0.6703009486752496 -4.1464595025210045
0.6839876424182579 -4.363484159296763
0.7002207190150485 -4.552078925820389
0.7192127703977291 -4.707643156292795
0.7412501241080234 -4.8257527396195705
0.7668600621400531 -4.902257635214268
0.7964674960080188 -4.933595466812966
0.8260749298759822 -4.902257635214096
0.8516848679080066 -4.825752739619225
0.8737222216182917 -4.707643156292298
0.8927142730009614 -4.552078925819773
0.9089473495977399 -4.363484159296061
0.922634043340737 -4.1464595025202415
0.9340017843285223 -3.905546338826003
0.9432626633075314 -3.6450611075405486
0.9505970660074675 -3.369018774828163
0.9561632333775062 -3.0810988771138175
0.9601249349590327 -2.7846130574942505
0.9626971955197943 -2.4823961936728183
0.964188418885121 -2.176702491434677
0.9649792575853864 -1.8691138733963848
0.9654162424247208 -1.5605570895166825
0.9656857303982369 -1.2514435675314057
0.965835418716656 -0.941918473055677
0.9658955573169052 -0.6320410515492083
0.9659291113581668 -0.32192519002405895
0.9664875509205516 -0.011117789135455853
0.7039088093939367 -0.011525404365173396
0.7042903010705572 -0.32195701691469053
0.7042932955425775 -0.6320458296301169
0.7042913369402721 -0.9419166447984441
0.7043388460434427 -1.2514543589008167
0.7044600930558819 -1.5605845645336622
0.7046731112552741 -1.8691644182617175
0.7050419045238733 -2.1768074920885776
0.7057271774250016 -2.482625914027402
0.706948970346902 -2.7850492747933804
0.7088754316242603 -3.0817999346700624
0.7116167253150396 -3.3700222508306137
0.7152436721543166 -3.6463966437003386
0.7198354884807134 -3.9072477522586606
0.7254980379174656 -4.148567990374828
0.732383458693571 -4.366051278524392
0.740712145518347 -4.555163776735126
0.7507657493857766 -4.71130786008568
0.7628720485252434 -4.830101586751561
0.7776888555186566 -4.907493211007469
0.7964674960079996 -4.939871502129069
0.8152461364973416 -4.907493211007296
0.8300629434907524 -4.830101586751214
0.8421692426302132 -4.711307860085181
0.8522228464976369 -4.555163776734508
0.8605515333224071 -4.366051278523688
0.8674369540985075 -4.148567990374063
0.8730995035352553 -3.907247752257857
0.8776913198616489 -3.6463966436995197
0.8813182667009217 -3.370022250829805
0.8840595603916971 -3.0817999346692893
0.8859860216690523 -2.7850492747926596
0.8872078145909504 -2.4826259140267437
0.8878930874920771 -2.176807492087992
0.8882618807606755 -1.8691644182612088
0.8884748989600676 -1.560584564533237
0.8885961459725067 -1.2514543589004719
0.8886436550756773 -0.9419166447981815
0.8886416964733718 -0.6320458296299344
0.8886446909453919 -0.3219570169145889
0.8890261826220115 -0.011525404365155999
0.7813124096890176 -0.011828433233367457
0.781568069449659 -0.32198698581170915
0.7815354570846832 -0.6320462071625639
0.7814713041255485 -0.9419066888522704
0.78141906540071 -1.2514506058301975
0.7813919269252918 -1.5605906397628746
0.7813808629494405 -1.8691800708478288
0.7813763071354615 -2.1768371064939123
0.7813743279618282 -2.482683876749577
0.7813738732626807 -2.7851587777347455
0.7813738099189406 -3.0819829076813914
0.7813709217941378 -3.3702957776229243
0.7813582564010154 -3.646772727026305
0.7813359287415513 -3.907741028078687
0.7813318860926183 -4.149201886890514
0.7814397850719539 -4.366865685276455
0.7818659851921239 -4.556223735709592
0.7829752478554809 -4.712703206992792
0.7852511700432026 -4.83193853256041
0.789238050719625 -4.91000607007397
0.7964674960079796 -4.94350104726779
0.8036969412963347 -4.9100060700737975
0.8076838219727563 -4.831938532560063
0.8099597441604768 -4.712703206992292
0.8110690068238336 -4.556223735708972
0.8114952069440043 -4.366865685275751
0.8116031059233411 -4.149201886889747
0.8115990632744098 -3.907741028077883
0.8115767356149483 -3.646772727025486
0.8115640702218277 -3.3702957776221147
0.8115611820970265 -3.081982907680618
0.8115611187532873 -2.7851587777340243
0.8115606640541405 -2.482683876748919
0.8115586848805076 -2.176837106493326
0.8115541290665287 -1.86918007084732
0.8115430650906776 -1.5605906397624494
0.8115159266152594 -1.2514506058298525
0.811463687890421 -0.9419066888520077
0.8113995349312864 -0.6320462071623812
0.8113669225663104 -0.32198698581160756
0.8116225823269512 -0.01182843323334947
0.8586700384819005 -0.012053521401289577
0.8588380378363502 -0.3220169749663505
0.858770707877735 -0.6320409424395028
0.8586449263043349 -0.9418887788703242
0.8584955659235775 -1.2514326272381302
0.8583221919377976 -1.560575003746469
0.8580873764626619 -1.8691618546620445
0.8577090726120797 -2.176806479444111
0.8570204243597963 -2.4826255341186356
0.8557986120512181 -2.7850492220180123
0.8538720301843994 -3.0817994505948794
0.8511232040542529 -3.370018603624463
0.8474704468696332 -3.646387821750274
0.8428364882756368 -3.907238587046048
0.8371725864179373 -4.148583877627298
0.8305111515385364 -4.366158241771819
0.8230258412308634 -4.555490136786929
0.8150894971743936 -4.712052949138238
0.8072478565939224 -4.8314825712112786
0.8002913038695848 -4.909910896624779
0.7964674960079593 -4.944562466584392
0.792643688146333 -4.909910896624606
0.7856871354219955 -4.831482571210931
0.7778454948415296 -4.712052949137738
0.7699091507850672 -4.555490136786311
0.7624238404774022 -4.3661582417711156
0.7557624055980082 -4.148583877626534
0.7500985037403164 -3.907238587045245
0.7454645451463282 -3.646387821749456
0.7418117879617164 -3.3700186036236546
0.739062961831577 -3.081799450594107
0.7371363799647638 -2.7850492220172915
0.7359145676561892 -2.482625534117978
0.7352259194039078 -2.1768064794435253
0.734847615553327 -1.869161854661536
0.7346128000781916 -1.5605750037460437
0.734439426092412 -1.251432627237785
0.7342900657116549 -0.9418887788700616
0.7341642841382547 -0.6320409424393202
0.7340969541796395 -0.32201697496624904
0.7342649535340889 -0.012053521401271262
0.9359916736939218 -0.012223450699869982
0.936101150641397 -0.32204594635317035
0.9360029476724048 -0.6320302111487066
0.9358179279543761 -0.9418630284859488
0.9355748456897351 -1.2514010200238646
0.9352588483500849 -1.5605380337643837
0.9347997313191411 -1.8691083019555632
0.934000694079674 -2.1767001761937155
0.9325085427348784 -2.482395622387326
0.929937509622004 -2.7846130802863684
0.9259748026447998 -3.0810974292348194
0.9204005137896323 -3.369011119083503
0.9130440854742942 -3.645043711404342
0.9037507549780963 -3.9055294689096627
0.8923945842652438 -4.146494721785563
0.8789382752167159 -4.363703393853141
0.8635172779714289 -4.552730907198254
0.8464954480235748 -4.709105576559824
0.8285333645662409 -4.828525130532645
0.8109520886064392 -4.907330776370012
0.7964674960079398 -4.943237269063495
0.7819829034094401 -4.907330776369838
0.7644016274496414 -4.8285251305323005
0.746439543992316 -4.709105576559325
0.7294177140444755 -4.552730907197639