# vtk DataFile Version 3.0
Some data
ASCII
DATASET UNSTRUCTURED_GRID
POINTS 861 float
0.0 0.0 0.0
0.4 0.0 0.0
0.8 0.0 0.0
1.2000000000000002 0.0 0.0
1.6 0.0 0.0
2.0 0.0 0.0
2.4000000000000004 0.0 0.0
2.8000000000000003 0.0 0.0
3.2 0.0 0.0
3.6 0.0 0.0
4.0 0.0 0.0
4.4 0.0 0.0
4.800000000000001 0.0 0.0
5.2 0.0 0.0
5.6000000000000005 0.0 0.0
6.0 0.0 0.0
6.4 0.0 0.0
6.800000000000001 0.0 0.0
7.2 0.0 0.0
7.6000000000000005 0.0 0.0
8.0 0.0 0.0
8.4 0.0 0.0
8.8 0.0 0.0
9.200000000000001 0.0 0.0
9.600000000000001 0.0 0.0
10.0 0.0 0.0
10.4 0.0 0.0
10.8 0.0 0.0
11.200000000000001 0.0 0.0
11.600000000000001 0.0 0.0
12.0 0.0 0.0
12.4 0.0 0.0
12.8 0.0 0.0
13.200000000000001 0.0 0.0
13.600000000000001 0.0 0.0
14.0 0.0 0.0
14.4 0.0 0.0
14.8 0.0 0.0
15.200000000000001 0.0 0.0
15.600000000000001 0.0 0.0
16.0 0.0 0.0
0.0 0.1 0.0
0.4 0.1 0.0
0.8 0.1 0.0
1.2000000000000002 0.1 0.0
1.6 0.1 0.0
2.0 0.1 0.0
2.4000000000000004 0.1 0.0
2.8000000000000003 0.1 0.0
3.2 0.1 0.0
3.6 0.1 0.0
4.0 0.1 0.0
4.4 0.1 0.0
4.800000000000001 0.1 0.0
5.2 0.1 0.0
5.6000000000000005 0.1 0.0
6.0 0.1 0.0
6.4 0.1 0.0
6.800000000000001 0.1 0.0
7.2 0.1 0.0
7.6000000000000005 0.1 0.0
8.0 0.1 0.0
8.4 0.1 0.0
8.8 0.1 0.0
9.200000000000001 0.1 0.0
9.600000000000001 0.1 0.0
10.0 0.1 0.0
10.4 0.1 0.0
10.8 0.1 0.0
11.200000000000001 0.1 0.0
11.600000000000001 0.1 0.0
12.0 0.1 0.0
12.4 0.1 0.0
12.8 0.1 0.0
13.200000000000001 0.1 0.0
13.600000000000001 0.1 0.0
14.0 0.1 0.0
14.4 0.1 0.0
14.8 0.1 0.0
15.200000000000001 0.1 0.0
15.600000000000001 0.1 0.0
16.0 0.1 0.0
0.0 0.2 0.0
0.4 0.2 0.0
0.8 0.2 0.0
1.2000000000000002 0.2 0.0
1.6 0.2 0.0
2.0 0.2 0.0
2.4000000000000004 0.2 0.0
2.8000000000000003 0.2 0.0
3.2 0.2 0.0
3.6 0.2 0.0
4.0 0.2 0.0
4.4 0.2 0.0
4.800000000000001 0.2 0.0
5.2 0.2 0.0
5.6000000000000005 0.2 0.0
6.0 0.2 0.0
6.4 0.2 0.0
6.800000000000001 0.2 0.0
7.2 0.2 0.0
7.6000000000000005 0.2 0.0
8.0 0.2 0.0
8.4 0.2 0.0
8.8 0.2 0.0
9.200000000000001 0.2 0.0
9.600000000000001 0.2 0.0
10.0 0.2 0.0
10.4 0.2 0.0
10.8 0.2 0.0
11.200000000000001 0.2 0.0
11.600000000000001 0.2 0.0
12.0 0.2 0.0
12.4 0.2 0.0
12.8 0.2 0.0
13.200000000000001 0.2 0.0
13.600000000000001 0.2 0.0
14.0 0.2 0.0
14.4 0.2 0.0
14.8 0.2 0.0
15.200000000000001 0.2 0.0
15.600000000000001 0.2 0.0
16.0 0.2 0.0
0.0 0.30000000000000004 0.0
0.4 0.30000000000000004 0.0
0.8 0.30000000000000004 0.0
1.2000000000000002 0.30000000000000004 0.0
1.6 0.30000000000000004 0.0
2.0 0.30000000000000004 0.0
2.4000000000000004 0.30000000000000004 0.0
2.8000000000000003 0.30000000000000004 0.0
3.2 0.30000000000000004 0.0
3.6 0.30000000000000004 0.0
4.0 0.30000000000000004 0.0
4.4 0.30000000000000004 0.0
4.800000000000001 0.30000000000000004 0.0
5.2 0.30000000000000004 0.0
5.6000000000000005 0.30000000000000004 0.0
6.0 0.30000000000000004 0.0
6.4 0.30000000000000004 0.0
6.800000000000001 0.30000000000000004 0.0
7.2 0.30000000000000004 0.0
7.6000000000000005 0.30000000000000004 0.0
8.0 0.30000000000000004 0.0
8.4 0.30000000000000004 0.0
8.8 0.30000000000000004 0.0
9.200000000000001 0.30000000000000004 0.0
9.600000000000001 0.30000000000000004 0.0
10.0 0.30000000000000004 0.0
10.4 0.30000000000000004 0.0
10.8 0.30000000000000004 0.0
11.200000000000001 0.30000000000000004 0.0
11.600000000000001 0.30000000000000004 0.0
12.0 0.30000000000000004 0.0
12.4 0.30000000000000004 0.0
12.8 0.30000000000000004 0.0
13.200000000000001 0.30000000000000004 0.0
13.600000000000001 0.30000000000000004 0.0
14.0 0.30000000000000004 0.0
14.4 0.30000000000000004 0.0
14.8 0.30000000000000004 0.0
15.200000000000001 0.30000000000000004 0.0
15.600000000000001 0.30000000000000004 0.0
16.0 0.30000000000000004 0.0
0.0 0.4 0.0
0.4 0.4 0.0
0.8 0.4 0.0
1.2000000000000002 0.4 0.0
1.6 0.4 0.0
2.0 0.4 0.0
2.4000000000000004 0.4 0.0
2.8000000000000003 0.4 0.0
3.2 0.4 0.0
3.6 0.4 0.0
4.0 0.4 0.0
4.4 0.4 0.0
4.800000000000001 0.4 0.0
5.2 0.4 0.0
5.6000000000000005 0.4 0.0
6.0 0.4 0.0
6.4 0.4 0.0
6.800000000000001 0.4 0.0
7.2 0.4 0.0
7.6000000000000005 0.4 0.0
8.0 0.4 0.0
8.4 0.4 0.0
8.8 0.4 0.0
9.200000000000001 0.4 0.0
9.600000000000001 0.4 0.0
10.0 0.4 0.0
10.4 0.4 0.0
10.8 0.4 0.0
11.200000000000001 0.4 0.0
11.600000000000001 0.4 0.0
12.0 0.4 0.0
12.4 0.4 0.0
12.8 0.4 0.0
13.200000000000001 0.4 0.0
13.600000000000001 0.4 0.0
14.0 0.4 0.0
14.4 0.4 0.0
14.8 0.4 0.0
15.200000000000001 0.4 0.0
15.600000000000001 0.4 0.0
16.0 0.4 0.0
0.0 0.5 0.0
0.4 0.5 0.0
0.8 0.5 0.0
1.2000000000000002 0.5 0.0
1.6 0.5 0.0
2.0 0.5 0.0
2.4000000000000004 0.5 0.0
2.8000000000000003 0.5 0.0
3.2 0.5 0.0
3.6 0.5 0.0
4.0 0.5 0.0
4.4 0.5 0.0
4.800000000000001 0.5 0.0
5.2 0.5 0.0
5.6000000000000005 0.5 0.0
6.0 0.5 0.0
6.4 0.5 0.0
6.800000000000001 0.5 0.0
7.2 0.5 0.0
7.6000000000000005 0.5 0.0
8.0 0.5 0.0
8.4 0.5 0.0
8.8 0.5 0.0
9.200000000000001 0.5 0.0
9.600000000000001 0.5 0.0
10.0 0.5 0.0
10.4 0.5 0.0
10.8 0.5 0.0
11.200000000000001 0.5 0.0
11.600000000000001 0.5 0.0
12.0 0.5 0.0
12.4 0.5 0.0
12.8 0.5 0.0
13.200000000000001 0.5 0.0
13.600000000000001 0.5 0.0
14.0 0.5 0.0
14.4 0.5 0.0
14.8 0.5 0.0
15.200000000000001 0.5 0.0
15.600000000000001 0.5 0.0
16.0 0.5 0.0
0.0 0.6000000000000001 0.0
0.4 0.6000000000000001 0.0
0.8 0.6000000000000001 0.0
1.2000000000000002 0.6000000000000001 0.0
1.6 0.6000000000000001 0.0
2.0 0.6000000000000001 0.0
2.4000000000000004 0.6000000000000001 0.0
2.8000000000000003 0.6000000000000001 0.0
3.2 0.6000000000000001 0.0
3.6 0.6000000000000001 0.0
4.0 0.6000000000000001 0.0
4.4 0.6000000000000001 0.0
4.800000000000001 0.6000000000000001 0.0
5.2 0.6000000000000001 0.0
5.6000000000000005 0.6000000000000001 0.0
6.0 0.6000000000000001 0.0
6.4 0.6000000000000001 0.0
6.800000000000001 0.6000000000000001 0.0
7.2 0.6000000000000001 0.0
7.6000000000000005 0.6000000000000001 0.0
8.0 0.6000000000000001 0.0
8.4 0.6000000000000001 0.0
8.8 0.6000000000000001 0.0
9.200000000000001 0.6000000000000001 0.0
9.600000000000001 0.6000000000000001 0.0
10.0 0.6000000000000001 0.0
10.4 0.6000000000000001 0.0
10.8 0.6000000000000001 0.0
11.200000000000001 0.6000000000000001 0.0
11.600000000000001 0.6000000000000001 0.0
12.0 0.6000000000000001 0.0
12.4 0.6000000000000001 0.0
12.8 0.6000000000000001 0.0
13.200000000000001 0.6000000000000001 0.0
13.600000000000001 0.6000000000000001 0.0
14.0 0.6000000000000001 0.0
14.4 0.6000000000000001 0.0
14.8 0.6000000000000001 0.0
15.200000000000001 0.6000000000000001 0.0
15.600000000000001 0.6000000000000001 0.0
16.0 0.6000000000000001 0.0
0.0 0.7000000000000001 0.0
0.4 0.7000000000000001 0.0
0.8 0.7000000000000001 0.0
1.2000000000000002 0.7000000000000001 0.0
1.6 0.7000000000000001 0.0
2.0 0.7000000000000001 0.0
2.4000000000000004 0.7000000000000001 0.0
2.8000000000000003 0.7000000000000001 0.0
3.2 0.7000000000000001 0.0
3.6 0.7000000000000001 0.0
4.0 0.7000000000000001 0.0
4.4 0.7000000000000001 0.0
4.800000000000001 0.7000000000000001 0.0
5.2 0.7000000000000001 0.0
5.6000000000000005 0.7000000000000001 0.0
6.0 0.7000000000000001 0.0
6.4 0.7000000000000001 0.0
6.800000000000001 0.7000000000000001 0.0
7.2 0.7000000000000001 0.0
7.6000000000000005 0.7000000000000001 0.0
8.0 0.7000000000000001 0.0
8.4 0.7000000000000001 0.0
8.8 0.7000000000000001 0.0
9.200000000000001 0.7000000000000001 0.0
9.600000000000001 0.7000000000000001 0.0
10.0 0.7000000000000001 0.0
10.4 0.7000000000000001 0.0
10.8 0.7000000000000001 0.0
11.200000000000001 0.7000000000000001 0.0
11.600000000000001 0.7000000000000001 0.0
12.0 0.7000000000000001 0.0
12.4 0.7000000000000001 0.0
12.8 0.7000000000000001 0.0
13.200000000000001 0.7000000000000001 0.0
13.600000000000001 0.7000000000000001 0.0
14.0 0.7000000000000001 0.0
14.4 0.7000000000000001 0.0
14.8 0.7000000000000001 0.0
15.200000000000001 0.7000000000000001 0.0
15.600000000000001 0.7000000000000001 0.0
16.0 0.7000000000000001 0.0
0.0 0.8 0.0
0.4 0.8 0.0
0.8 0.8 0.0
1.2000000000000002 0.8 0.0
1.6 0.8 0.0
2.0 0.8 0.0
2.4000000000000004 0.8 0.0
2.8000000000000003 0.8 0.0
3.2 0.8 0.0
3.6 0.8 0.0
4.0 0.8 0.0
4.4 0.8 0.0
4.800000000000001 0.8 0.0
5.2 0.8 0.0
5.6000000000000005 0.8 0.0
6.0 0.8 0.0
6.4 0.8 0.0
6.800000000000001 0.8 0.0
7.2 0.8 0.0
7.6000000000000005 0.8 0.0
8.0 0.8 0.0
8.4 0.8 0.0
8.8 0.8 0.0
9.200000000000001 0.8 0.0
9.600000000000001 0.8 0.0
10.0 0.8 0.0
10.4 0.8 0.0
10.8 0.8 0.0
11.200000000000001 0.8 0.0
11.600000000000001 0.8 0.0
12.0 0.8 0.0
12.4 0.8 0.0
12.8 0.8 0.0
13.200000000000001 0.8 0.0
13.600000000000001 0.8 0.0
14.0 0.8 0.0
14.4 0.8 0.0
14.8 0.8 0.0
15.200000000000001 0.8 0.0
15.600000000000001 0.8 0.0
16.0 0.8 0.0
0.0 0.9 0.0
0.4 0.9 0.0
0.8 0.9 0.0
1.2000000000000002 0.9 0.0
1.6 0.9 0.0
2.0 0.9 0.0
2.4000000000000004 0.9 0.0
2.8000000000000003 0.9 0.0
3.2 0.9 0.0
3.6 0.9 0.0
4.0 0.9 0.0
4.4 0.9 0.0
4.800000000000001 0.9 0.0
5.2 0.9 0.0
5.6000000000000005 0.9 0.0
6.0 0.9 0.0
6.4 0.9 0.0
6.800000000000001 0.9 0.0
7.2 0.9 0.0
7.6000000000000005 0.9 0.0
8.0 0.9 0.0
8.4 0.9 0.0
8.8 0.9 0.0
9.200000000000001 0.9 0.0
9.600000000000001 0.9 0.0
10.0 0.9 0.0
10.4 0.9 0.0
10.8 0.9 0.0
11.200000000000001 0.9 0.0
11.600000000000001 0.9 0.0
12.0 0.9 0.0
12.4 0.9 0.0
12.8 0.9 0.0
13.200000000000001 0.9 0.0
13.600000000000001 0.9 0.0
14.0 0.9 0.0
14.4 0.9 0.0
14.8 0.9 0.0
15.200000000000001 0.9 0.0
15.600000000000001 0.9 0.0
16.0 0.9 0.0
0.0 1.0 0.0
0.4 1.0 0.0
0.8 1.0 0.0
1.2000000000000002 1.0 0.0
1.6 1.0 0.0
2.0 1.0 0.0
2.4000000000000004 1.0 0.0
2.8000000000000003 1.0 0.0
3.2 1.0 0.0
3.6 1.0 0.0
4.0 1.0 0.0
4.4 1.0 0.0
4.800000000000001 1.0 0.0
5.2 1.0 0.0
5.6000000000000005 1.0 0.0
6.0 1.0 0.0
6.4 1.0 0.0
6.800000000000001 1.0 0.0
7.2 1.0 0.0
7.6000000000000005 1.0 0.0
8.0 1.0 0.0
8.4 1.0 0.0
8.8 1.0 0.0
9.200000000000001 1.0 0.0
9.600000000000001 1.0 0.0
10.0 1.0 0.0
10.4 1.0 0.0
10.8 1.0 0.0
11.200000000000001 1.0 0.0
11.600000000000001 1.0 0.0
12.0 1.0 0.0
12.4 1.0 0.0
12.8 1.0 0.0
13.200000000000001 1.0 0.0
13.600000000000001 1.0 0.0
14.0 1.0 0.0
14.4 1.0 0.0
14.8 1.0 0.0
15.200000000000001 1.0 0.0
15.600000000000001 1.0 0.0
16.0 1.0 0.0
0.0 1.1 0.0
0.4 1.1 0.0
0.8 1.1 0.0
1.2000000000000002 1.1 0.0
1.6 1.1 0.0
[...]
POINT_DATA 861
SCALARS Disp float 2
LOOKUP_TABLE default
0.0 0.0
0.005066202872368008 -0.18381549828946966
0.006221224967219492 -0.3594584305581505
0.006970532727969721 -0.5342425020442095
0.00789676134684695 -0.708708494192967
0.009281551923284424 -0.8825482508808978
0.011570339247660653 -1.0553634972989323
0.015274609671451524 -1.2266644897263277
0.02098585118550029 -1.395844945645496
0.02934390753393842 -1.5621261714538293
0.040997237864912696 -1.7244645604046942
0.05659150654320896 -1.8814823015376299
0.07676861869881701 -2.031465570156496
0.10215907739989377 -2.172433642395761
0.1333820996577653 -2.3021988583377944
0.17097887082650062 -2.4184117184055816
0.21528617480939563 -2.518611952433668
0.2662763146225729 -2.600313875452165
0.3234114309877485 -2.661171537917561
0.38557105706298583 -2.699214623679408
0.4509374463251646 -2.7130851415129538
0.5163038355873398 -2.6992146236793273
0.578463461662565 -2.661171537917395
0.6355985780277197 -2.600313875451926
0.6865887178408708 -2.518611952433368
0.7308960218237374 -2.418411718405239
0.7684927929924437 -2.302198858337418
0.7997158152502859 -2.1724336423953634
0.8251062739513334 -2.0314655701560884
0.8452833861069138 -1.881482301537225
0.8608776547851851 -1.7244645604043027
0.8725309851161386 -1.56212617145346
0.8808890414645605 -1.395844945645154
0.8866002829785969 -1.2266644897260188
0.8903045534023794 -1.0553634972986596
0.8925933407267507 -0.8825482508806658
0.8939781313031857 -0.708708494192776
0.8949043599220623 -0.5342425020440623
0.8956536676828123 -0.35945843055804627
0.8968086897776626 -0.18381549828941074
0.9018748926500272 0.0
0.0458567901161688 -0.002154643022187593
0.04933676163855481 -0.18401137507776863
0.04995492446354325 -0.3595195116168752
0.050624333332586924 -0.5343264170611357
0.05144583965594422 -0.7088285103191858
0.052635502699450006 -0.8827921458565967
0.054614328604340484 -1.0558482011397459
0.05786710786396676 -1.2275260686695884
0.0629498662306039 -1.3972344178934117
0.07044625795222537 -1.5641962000251872
0.08093378868339303 -1.7273651962095893
0.09497396380912063 -1.8853624262239888
0.11312818422909993 -2.0364751882102743
0.13597250783897213 -2.178723374198012
0.1640752522768685 -2.309913187904242
0.19794279032575599 -2.42766523460328
0.23790067760101374 -2.529453215113871
0.2839493696123409 -2.612687335440856
0.33563290490343667 -2.674887366241432
0.3919148215180152 -2.7139294451689158
0.4509374463251546 -2.7282052103562826
0.5099600711322904 -2.713929445168833
0.5662419877468577 -2.674887366241262
0.6179255230379354 -2.612687335440611
0.6639742150492397 -2.529453215113565
0.7039321023244721 -2.427665234602931
0.7377996403733336 -2.3099131879038595
0.7659023848112034 -2.1787233741976073
0.7887467084210494 -2.0364751882098595
0.8069009288410038 -1.8853624262235775
0.8209411039667088 -1.7273651962091925
0.8314286346978578 -1.5641962000248137
0.8389250264194643 -1.3972344178930667
0.8440077847860904 -1.227526068669277
0.847260564045709 -1.0558482011394716
0.8492393899505952 -0.8827921458563639
0.8504290529940991 -0.7088285103189947
0.851250559317456 -0.5343264170609886
0.8519199681864995 -0.3595195116167709
0.8525381310114878 -0.1840113750777094
0.8560181025338688 -0.002154643022185175
0.09082776719691832 -0.003849544972377706
0.09335135550404944 -0.1841060249568469
0.09370925354882584 -0.35955531453149187
0.09425665241397278 -0.5344010471782166
0.0949812191808483 -0.7089269502758302
0.09599590860978684 -0.8829856127181982
0.09766937494327761 -1.0562484762259323
0.10047198190354384 -1.2282619406033595
0.10491593064513306 -1.3984465541542692
0.11153177869788626 -1.5660227002585396
0.12082906710020395 -1.7299378828538454
0.13329337844208197 -1.8888098360487529
0.14940843362412665 -2.0409293727127737
0.16968105322314622 -2.18432195875781
0.19463290823013507 -2.3167893574746117
0.22473198649353968 -2.435927195041991
0.26029873765361783 -2.5391523533575033
0.3013783873175218 -2.623783117157337
0.3476001064335107 -2.687214677224303
0.3980030434289912 -2.727151204904038
0.45093744632514493 -2.7417986987889607
0.5038718492212955 -2.727151204903953
0.5542747862167657 -2.6872146772241297
0.6004965053327385 -2.6237831171570876
0.6415761549966227 -2.5391523533571916
0.6771429061566784 -2.435927195041636
0.7072419844200598 -2.316789357474223
0.7321938394270251 -2.1843219587573994
0.7524664590260214 -2.0409293727123536
0.7685815142080441 -1.888809836048336
0.7810458255499017 -1.7299378828534437
0.7903431139522029 -1.5660227002581624
0.7969589620049427 -1.3984465541539213
0.801402910746522 -1.228261940603046
0.8042055177067815 -1.0562484762256568
0.8058789840402687 -0.8829856127179649
0.8068936734692058 -0.7089269502756389
0.807618240236081 -0.5344010471780695
0.8081656391012279 -0.3595553145313876
0.8085235371460043 -0.18410602495678732
0.8110471254531306 -0.0038495449723727365
0.13533533452683627 -0.005205479910398069
0.1372233110233476 -0.18416992538543822
0.13744269571198414 -0.35957547621597297
0.13787136978161413 -0.5344625856729206
0.138497269794358 -0.7090102793242069
0.1393590382582774 -0.8831352401811654
0.1407441402677474 -1.0565668693574162
0.14309974908184594 -1.2288733881339537
0.1469010995599681 -1.399479607250344
0.15262483136911917 -1.567602250777308
0.16071653742341002 -1.73217857977767
0.17158929902807687 -1.8918218211326774
0.1856535521993605 -2.044826049682292
0.20334532389305085 -2.18922502799829
0.2251242552966991 -2.3228210108497427
0.25142670355600005 -2.4431897582722764
0.28257092295108976 -2.54770172057069
0.3186476245527369 -2.6335962458187234
0.35937667210383567 -2.6981494426998043
0.4039442318617056 -2.738908453147627
0.45093744632513577 -2.753929723910979
0.49793066078856285 -2.738908453147541
0.5424982205464233 -2.6981494426996284
0.583227268097508 -2.63359624581847
0.6193039696991375 -2.547701720570374
0.650448189094208 -2.443189758271916
0.6767506373534883 -2.3228210108493488
0.6985295687571159 -2.1892250279978738
0.7162213404507859 -2.0448260496818667
0.7302855936220504 -1.8918218211322557
0.7411583552266996 -1.7321785797772642
0.7492500612809759 -1.5676022507769272
0.7549737930901151 -1.399479607249993
0.7587751435682286 -1.2288733881336384
0.7611307523823213 -1.0565668693571393
0.7625158543917885 -0.8831352401809317
0.7633776228557069 -0.7090102793240155
0.7640035228684504 -0.5344625856727736
0.7644321969380805 -0.3595754762158688
0.7646515816267171 -0.18416992538537832
0.766539558123224 -0.005205479910390822
0.17957625039750996 -0.006296093152412322
0.18099517497167109 -0.18422125128886918
0.1811385830734893 -0.3595870389282126
0.1814660862582771 -0.534510450196809
0.18199145709099326 -0.7090807398940135
0.18271623275041857 -0.8832513083019838
0.18384436728668294 -1.0568098292259527
0.1857607231267934 -1.2293626448563004
0.18892264871251446 -1.4003342396990808
0.19375029105967956 -1.568933569633058
0.2006286739969987 -1.734085781937272
0.2099032614178318 -1.8943970226685716
0.2219108444665548 -2.048164666688823
0.23701658559755737 -2.193432065732536
0.2556210188343964 -2.3280052443870796
0.2781131253815782 -2.449447935762357
0.30480823568610094 -2.555094618656252
0.3358448477114743 -2.6421182441047057
0.3710509501999679 -2.707690734114579
0.4098017450303713 -2.7492218460488838
0.45093744632512667 -2.7646346231867316
0.4920731476198791 -2.749221846048796
0.530823942450274 -2.7076907341144003
0.5660300449387552 -2.6421182441044477
0.5970666569641133 -2.5550946186559313
0.6237617672686196 -2.4494479357619925
0.6462538738157834 -2.3280052443866817
0.6648583070526048 -2.1934320657321154
0.67996404818359 -2.0481646666883933
0.6919716312322968 -1.894397022668146
0.7012462186531147 -1.7340857819368622
0.7081246015904213 -1.5689335696326745
0.7129522439375762 -1.400334239698728
0.7161141695232899 -1.2293626448559838
0.7180305253633956 -1.056809829225675
0.7191586598996578 -0.8832513083017498
0.7198834355590825 -0.7090807398938221
0.7204088063917984 -0.534510450196662
0.7207363095765862 -0.35958703892810845
0.7208797176784044 -0.18422125128880906
0.7222986422525618 -0.006296093152403065
0.22364034081971806 -0.007168006394290658
0.22469647029497172 -0.1842659152713655
0.22479509627787916 -0.3595948242050786
0.22503827491338407 -0.5345456614974148
0.22546224783832486 -0.7091394806600789
0.22606151263026364 -0.8833417282542526
0.22696162735543327 -1.0569889770762386
0.22847204635214152 -1.229733946497827
0.23099827469750164 -1.4010129633221338
0.23493354137198263 -1.5700178932179265
0.2405988794834525 -1.7356598801206566
0.24827512484639444 -1.896536447345993
0.2582294991420347 -2.0509467234426104
0.27075536672330164 -2.1969445947392643
0.2861866031947586 -2.3323436425213027
0.3048726563623348 -2.4547008289089303
0.32710929730907284 -2.5613254659579496
0.35306960451198677 -2.6493402961794192
0.3827107721435434 -2.715834457202993
0.4156292205959843 -2.7581005857149172
0.45093744632511745 -2.7739344917384674
0.48624567205424807 -2.7581005857148275
0.5191641205066816 -2.7158344572028126
0.5488052881382275 -2.649340296179158
0.5747655953411285 -2.561325465957626
0.5970022362878528 -2.454700828908562
0.6156882894554137 -2.3323436425209008
0.6311195259268559 -2.1969445947388397
0.6436453935081086 -2.050946723442177
0.6535997678037353 -1.8965364473455637
0.6612760131666646 -1.735659880120244
0.666941351278124 -1.5700178932175406
0.6708766179525965 -1.401012963321779
0.6734028462979504 -1.229733946497509
0.6749132652946551 -1.0569889770759604
0.6758133800198233 -0.8833417282540184
0.6764126448117617 -0.7091394806598875
0.6768366177367022 -0.5345456614972676
0.6770797963722072 -0.3595948242049745
0.6771784223551146 -0.1842659152713052
0.6782345518303653 -0.007168006394279675
0.2675757374499104 -0.007857072291883265
0.2683478584056316 -0.1843058431891743
0.26841661307340076 -0.35960129548693975
0.26858746687580515 -0.5345696543801263
0.2689108838586533 -0.7091864329442663
0.2693896478678394 -0.8834121774737143
0.27008595592006723 -1.0571175019129202
0.2712290214788619 -1.230000079923224
0.2731510387664016 -1.4015204795421399
0.2762011404045335 -1.5708587491856647
0.28066198589791513 -1.7369039088355802
0.28674760559044427 -1.8982431909155115
0.2946588392363253 -2.053176244402256
0.3046190995762506 -2.1997673841166856
0.3168962820731925 -2.335840114505543
0.33178580603500013 -2.458951439209045
0.3495654377922668 -2.5663929295887145
0.37043115982351293 -2.6552541189274903
0.39445451225439065 -2.7225706296283785
0.42148189283786375 -2.765541815176405
0.4509374463251081 -2.781837465209545
0.4803929998123501 -2.7655418151763143
0.507420380395817 -2.722570629628196
0.5314437328266858 -2.6552541189272265
0.5523094548579216 -2.5663929295883876
0.5700890866151767 -2.4589514392086738
0.584978610576972 -2.3358401145051384
0.5972557930739021 -2.1997673841162584
0.6072160534138165 -2.0531762444018193
0.6151272870596867 -1.8982431909150796
0.6212129067522058 -1.7369039088351652
0.625673752245579 -1.5708587491852766
0.6287238538837041 -1.4015204795417835
0.6306458711712392 -1.2300000799229052
0.6317889367300313 -1.0571175019126415
0.6324852447822582 -0.88341217747348
0.6329640087914439 -0.7091864329440749
0.633287425774292 -0.5345696543799789
0.6334582795766962 -0.3596012954868357
0.6335270342444653 -0.18430584318911383
0.6342991552001843 -0.00785707229187089
0.31141513915498537 -0.008391823856807763
0.3119647379323011 -0.18434265683558976
0.3120095537234063 -0.35960699218514447
0.31211509113271474 -0.5345838281038285
0.3123400429787737 -0.7092208088462194
0.3126964302829801 -0.8834665061573969
0.3132126004269039 -1.0572059168823638
0.31402447448346293 -1.230177703976856
0.3153883034520924 -1.4018697591187583
0.31758505776091367 -1.571462906711765
0.3208553486864032 -1.737823517049696
0.3253643196269369 -1.899522980695474
0.3312508800443327 -2.054860026950339
0.3386695655632186 -2.2019083878635515
0.3478189435275286 -2.338503031731018
0.35893846491103354 -2.4622059940891035
0.37227595963335036 -2.570299583481095
0.3880363538081992 -2.6598544825172703
0.4063870713526774 -2.727883913637182
0.4274231297186868 -2.771529299525755
0.4509374463250984 -2.788338175926577
0.4744517629315082 -2.7715292995256635
0.495487821297513 -2.727883913636998
0.513838538841984 -2.6598544825170047
0.5295989330168249 -2.570299583480766
0.5429364277391325 -2.462205994088729
0.554055949122628 -2.3385030317306112
0.5632053270869297 -2.201908387863122
0.5706240126058075 -2.0548600269499
0.5765105730231953 -1.89952298069504
0.5810195439637216 -1.7378235170492793
0.5842898348892047 -1.571462906711375
0.5864865891980213 -1.401869759118401
0.5878504181666475 -1.2301777039765365
0.5886622922232048 -1.057205916882085
0.5891784623671281 -0.8834665061571624
0.5895348496713341 -0.7092208088460281
0.589759801517393 -0.5345838281036811
0.5898653389267016 -0.3596069921850404
0.5899101547178065 -0.18434265683552928
0.5904597534951207 -0.008391823856794278
0.355177562274323 -0.008799747079958566
0.3555615847717435 -0.1843776713980924
0.355579657925478 -0.3596111889317684
0.3556239426400498 -0.5345892649894876
0.3557535547295271 -0.7092421690647933
0.3559832598815558 -0.8835051466629564
0.35632828554967527 -1.0572651557189
0.3568509548158037 -1.2302847300234443
0.35770805157130925 -1.4020813767629636
0.35910403648925987 -1.5718458989071278
0.36121924124379384 -1.7384290366750008
0.36417637216334564 -1.9003854789575159
0.3680615786767139 -2.056008551246043
0.37296969228008825 -2.2033797224199674
0.37902966628234525 -2.3403450108075683
0.386415167783987 -2.46447561078756
0.39533538401914975 -2.573053652995441
0.4060047469031605 -2.663140781246119
0.41863373954164257 -2.731755713797418
0.4335309419840446 -2.7760324042492623
0.4509374463250882 -2.79341651813722
0.468343950666131 -2.77603240424917
0.48324115310853016 -2.7317557137972326
0.4958701457470068 -2.6631407812458523
0.5065395086310119 -2.57305365299511
0.5154597248661682 -2.4644756107871837
0.5228452263678037 -2.3403450108071593
0.5289052003700556 -2.203379722419536
0.5338133139734248 -2.0560085512456023
0.5376985204867881 -1.9003854789570798
0.5406556514063351 -1.7384290366745827
0.5427708561608648 -1.5718458989067368
0.5441668410788126 -1.402081376762606
0.5450239378343164 -1.2302847300231246
0.5455466071004438 -1.057265155718621
0.5458916327685629 -0.8835051466627221
0.5461213379205916 -0.7092421690646019
0.5462509500100687 -0.5345892649893403
0.5462952347246405 -0.35961118893166427
0.5463133078783748 -0.1843776713980319
0.5466973303757943 -0.008799747079944256
0.3988756085092645 -0.009109322555867662
0.3991444130344737 -0.18441267430444058
0.39913241104933284 -0.3596123775097284
0.39911785122981397 -0.5345867689097639
0.3991550983510737 -0.7092506598381446
0.3992565619027374 -0.8835266851271618
0.39942617186490226 -1.0573005522292949
0.3996875095036992 -1.2303414481114143
0.40009810966677023 -1.4021838935107795
0.40076289300881845 -1.5720357120611355
0.4017827945040462 -1.7387432447169593
0.40323276358881466 -1.9008495260393816
0.40515011747294855 -2.0566396180280813
0.4075816589815403 -2.2042006629479998
0.4105948860042045 -2.3413864947908145
0.4142899100657917 -2.465778980547057
0.41882235976311005 -2.5746696503049473
0.4244110643688491 -2.6651244958455447
0.4313244751982583 -2.734174393675086
0.43992576186929844 -2.7790047589475098
0.45093744632507793 -2.7970310097999525
0.4619491307808572 -2.779004758947417
0.47055041745189585 -2.7341743936748997
0.47746382828130174 -2.6651244958452764
0.48305253288703753 -2.5746696503046156
0.4875849825843528 -2.4657789805466797
0.49128000664593713 -2.341386494790404
0.49429323366859934 -2.2042006629475677
0.49672477517718905 -2.05663961802764
0.4986421290613207 -1.9008495260389449
0.5000920981460871 -1.7387432447165405
0.501111999641313 -1.572035712060744
0.5017767829833603 -1.4021838935104216
0.5021873831464306 -1.2303414481110944
0.5024487207852271 -1.0573005522290158
0.5026183307473918 -0.8835266851269273
0.5027197942990556 -0.7092506598379532
0.5027570414203154 -0.5345867689096165
0.5027424816007964 -0.35961237750962427
0.5027304796156555 -0.18441267430438013
0.502999284140864 -0.009109322555852738
0.44252521256914623 -0.009344245280366733
0.44271290899667004 -0.18444908988760209
0.4426725694405119 -0.35960943724167077
0.4426012008876858 -0.5345768628561525
0.44254898394068176 -0.7092465389853804
0.44252282261282994 -0.8835306008911442
0.4425131178669752 -1.0573116637022677
0.442510535967517 -1.2303599323387695
0.4425100906017919 -1.4022140642241214
0.44251031701270455 -1.5720857737320186
0.44251054032949666 -1.7388236743546317
0.4425104330221875 -1.9009692949310735
0.44250708965151714 -2.0568040009854434
0.44249689567161804 -2.204419492609449
0.44248264376948 -2.3416744666636204
0.442496970650766 -2.466159658966903
0.44264334048266996 -2.5751850862538297
0.4431493087976526 -2.6658401641736513
0.4443694037639605 -2.735172604748219
0.4467067788346456 -2.780411602981848
0.4509374463250672 -2.7991189280285322
0.4551681138154893 -2.780411602981755
0.457505488886174 -2.735172604748032
0.4587255838524808 -2.665840164173382
0.4592315521674635 -2.575185086253497
0.45937792199936794 -2.4661596589665256
0.45939224888065444 -2.3416744666632097
0.45937799697851744 -2.204419492609017
0.4593678029986193 -2.0568040009850024
0.45936445962794986 -1.9009692949306365
0.45936435232064166 -1.7388236743542125
0.4593645756374344 -1.5720857737316274
0.45936480204834745 -1.4022140642237637
0.45936435668262265 -1.2303599323384493
0.4593617747831644 -1.0573116637019888
0.4593520700373099 -0.8835306008909098
0.4593259087094581 -0.709246538985189
0.4592736917624542 -0.5345768628560053
0.45920232320962817 -0.3596094372415665
0.45916198365346994 -0.18444908988754163
0.45934968008099347 -0.009344245280351474
0.4861374730236434 -0.009525769030834349
0.48626982925990586 -0.18448511078918806
0.48620392822050895 -0.3596025416140436
0.48607866088748986 -0.5345597625206241
0.4859397779564696 -0.7092302656874652
0.4857881037982325 -0.8835169170418707
0.4856000475497844 -1.0572978981462997
0.4853332558331825 -1.2303409291558254
0.4849219255592084 -1.402183924804903
0.4842577007899667 -1.5720357636459097
0.48323870884390796 -1.7387434045222623
0.48178822822373124 -1.9008488436985693
0.47986339939499206 -2.056636690462002
0.4774112376620019 -2.2041946406831094
0.4743709828317792 -2.341383683489428
0.47070706092712133 -2.465806947296901
0.4664608643871414 -2.574798557226692
0.461820833102076 -2.66548522885437
0.45715289049761404 -2.734929441393263
0.4530128796072822 -2.7803657507973885
0.45093744632505667 -2.7997935621936834
0.44886201304283035 -2.780365750797295
0.444722002152499 -2.734929441393077
0.44005405954803894 -2.6654852288541018
0.4354140282629776 -2.5747985572263596
0.43116783172300194 -2.4658069472965236
0.42750390981834796 -2.341383683489018
0.424463654988129 -2.204194640682678
0.422011493255143 -2.056636690461561
0.420086664426408 -1.9008488436981326
0.4186361838062353 -1.7387434045218437
0.4176171918601796 -1.572035763645519
0.41695296709093993 -1.4021839248045456
0.4165416368169668 -1.2303409291555052
0.4162748451003655 -1.0572978981460206
0.4160867888519179 -0.8835169170416366
0.41593511469368105 -0.7092302656872737
0.41579623176266095 -0.5345597625204769
0.4156709644296419 -0.35960254161393934
0.415605063390245 -0.18448511078912763
0.41573741962650734 -0.009525769030818877
0.5297275604077075 -0.009665599444859705
0.5298197599865971 -0.18451875679430038
0.5297308047912812 -0.35959200905578653
0.5295548950089473 -0.5345357784656005
0.529332717423499 -0.7092024375485378
0.5290585442890645 -0.8834859508925109
0.5286964961303781 -1.0572598909824358
0.5281691734220008 -1.2302836791395406
0.5273116438788543 -1.4020814690044636
0.5259168889545309 -1.5718461758363587
0.5238024453463452 -1.7384292081910495
0.5208441211985383 -1.9003838277873009
0.5169521946249969 -2.056002255976432
0.5120262565817557 -2.2033673174452097
0.5059426280135964 -2.3403393203218994
0.4985856770196179 -2.464532353166515
0.48992684881692306 -2.5733106129478864
0.4801112262636763 -2.6638475136870823
0.4695377057819997 -2.733261555581829