# vtk DataFile Version 3.0
Some data
ASCII
DATASET UNSTRUCTURED_GRID
POINTS 861 float
0.0 0.0 0.0
0.4 0.0 0.0
0.8 0.0 0.0
1.2000000000000002 0.0 0.0
1.6 0.0 0.0
2.0 0.0 0.0
2.4000000000000004 0.0 0.0
2.8000000000000003 0.0 0.0
3.2 0.0 0.0
3.6 0.0 0.0
4.0 0.0 0.0
4.4 0.0 0.0
4.800000000000001 0.0 0.0
5.2 0.0 0.0
5.6000000000000005 0.0 0.0
6.0 0.0 0.0
6.4 0.0 0.0
6.800000000000001 0.0 0.0
7.2 0.0 0.0
7.6000000000000005 0.0 0.0
8.0 0.0 0.0
8.4 0.0 0.0
8.8 0.0 0.0
9.200000000000001 0.0 0.0
9.600000000000001 0.0 0.0
10.0 0.0 0.0
10.4 0.0 0.0
10.8 0.0 0.0
11.200000000000001 0.0 0.0
11.600000000000001 0.0 0.0
12.0 0.0 0.0
12.4 0.0 0.0
12.8 0.0 0.0
13.200000000000001 0.0 0.0
13.600000000000001 0.0 0.0
14.0 0.0 0.0
14.4 0.0 0.0
14.8 0.0 0.0
15.200000000000001 0.0 0.0
15.600000000000001 0.0 0.0
16.0 0.0 0.0
0.0 0.1 0.0
0.4 0.1 0.0
0.8 0.1 0.0
1.2000000000000002 0.1 0.0
1.6 0.1 0.0
2.0 0.1 0.0
2.4000000000000004 0.1 0.0
2.8000000000000003 0.1 0.0
3.2 0.1 0.0
3.6 0.1 0.0
4.0 0.1 0.0
4.4 0.1 0.0
4.800000000000001 0.1 0.0
5.2 0.1 0.0
5.6000000000000005 0.1 0.0
6.0 0.1 0.0
6.4 0.1 0.0
6.800000000000001 0.1 0.0
7.2 0.1 0.0
7.6000000000000005 0.1 0.0
8.0 0.1 0.0
8.4 0.1 0.0
8.8 0.1 0.0
9.200000000000001 0.1 0.0
9.600000000000001 0.1 0.0
10.0 0.1 0.0
10.4 0.1 0.0
10.8 0.1 0.0
11.200000000000001 0.1 0.0
11.600000000000001 0.1 0.0
12.0 0.1 0.0
12.4 0.1 0.0
12.8 0.1 0.0
13.200000000000001 0.1 0.0
13.600000000000001 0.1 0.0
14.0 0.1 0.0
14.4 0.1 0.0
14.8 0.1 0.0
15.200000000000001 0.1 0.0
15.600000000000001 0.1 0.0
16.0 0.1 0.0
0.0 0.2 0.0
0.4 0.2 0.0
0.8 0.2 0.0
1.2000000000000002 0.2 0.0
1.6 0.2 0.0
2.0 0.2 0.0
2.4000000000000004 0.2 0.0
2.8000000000000003 0.2 0.0
3.2 0.2 0.0
3.6 0.2 0.0
4.0 0.2 0.0
4.4 0.2 0.0
4.800000000000001 0.2 0.0
5.2 0.2 0.0
5.6000000000000005 0.2 0.0
6.0 0.2 0.0
6.4 0.2 0.0
6.800000000000001 0.2 0.0
7.2 0.2 0.0
7.6000000000000005 0.2 0.0
8.0 0.2 0.0
8.4 0.2 0.0
8.8 0.2 0.0
9.200000000000001 0.2 0.0
9.600000000000001 0.2 0.0
10.0 0.2 0.0
10.4 0.2 0.0
10.8 0.2 0.0
11.200000000000001 0.2 0.0
11.600000000000001 0.2 0.0
12.0 0.2 0.0
12.4 0.2 0.0
12.8 0.2 0.0
13.200000000000001 0.2 0.0
13.600000000000001 0.2 0.0
14.0 0.2 0.0
14.4 0.2 0.0
14.8 0.2 0.0
15.200000000000001 0.2 0.0
15.600000000000001 0.2 0.0
16.0 0.2 0.0
0.0 0.30000000000000004 0.0
0.4 0.30000000000000004 0.0
0.8 0.30000000000000004 0.0
1.2000000000000002 0.30000000000000004 0.0
1.6 0.30000000000000004 0.0
2.0 0.30000000000000004 0.0
2.4000000000000004 0.30000000000000004 0.0
2.8000000000000003 0.30000000000000004 0.0
3.2 0.30000000000000004 0.0
3.6 0.30000000000000004 0.0
4.0 0.30000000000000004 0.0
4.4 0.30000000000000004 0.0
4.800000000000001 0.30000000000000004 0.0
5.2 0.30000000000000004 0.0
5.6000000000000005 0.30000000000000004 0.0
6.0 0.30000000000000004 0.0
6.4 0.30000000000000004 0.0
6.800000000000001 0.30000000000000004 0.0
7.2 0.30000000000000004 0.0
7.6000000000000005 0.30000000000000004 0.0
8.0 0.30000000000000004 0.0
8.4 0.30000000000000004 0.0
8.8 0.30000000000000004 0.0
9.200000000000001 0.30000000000000004 0.0
9.600000000000001 0.30000000000000004 0.0
10.0 0.30000000000000004 0.0
10.4 0.30000000000000004 0.0
10.8 0.30000000000000004 0.0
11.200000000000001 0.30000000000000004 0.0
11.600000000000001 0.30000000000000004 0.0
12.0 0.30000000000000004 0.0
12.4 0.30000000000000004 0.0
12.8 0.30000000000000004 0.0
13.200000000000001 0.30000000000000004 0.0
13.600000000000001 0.30000000000000004 0.0
14.0 0.30000000000000004 0.0
14.4 0.30000000000000004 0.0
14.8 0.30000000000000004 0.0
15.200000000000001 0.30000000000000004 0.0
15.600000000000001 0.30000000000000004 0.0
16.0 0.30000000000000004 0.0
0.0 0.4 0.0
0.4 0.4 0.0
0.8 0.4 0.0
1.2000000000000002 0.4 0.0
1.6 0.4 0.0
2.0 0.4 0.0
2.4000000000000004 0.4 0.0
2.8000000000000003 0.4 0.0
3.2 0.4 0.0
3.6 0.4 0.0
4.0 0.4 0.0
4.4 0.4 0.0
4.800000000000001 0.4 0.0
5.2 0.4 0.0
5.6000000000000005 0.4 0.0
6.0 0.4 0.0
6.4 0.4 0.0
6.800000000000001 0.4 0.0
7.2 0.4 0.0
7.6000000000000005 0.4 0.0
8.0 0.4 0.0
8.4 0.4 0.0
8.8 0.4 0.0
9.200000000000001 0.4 0.0
9.600000000000001 0.4 0.0
10.0 0.4 0.0
10.4 0.4 0.0
10.8 0.4 0.0
11.200000000000001 0.4 0.0
11.600000000000001 0.4 0.0
12.0 0.4 0.0
12.4 0.4 0.0
12.8 0.4 0.0
13.200000000000001 0.4 0.0
13.600000000000001 0.4 0.0
14.0 0.4 0.0
14.4 0.4 0.0
14.8 0.4 0.0
15.200000000000001 0.4 0.0
15.600000000000001 0.4 0.0
16.0 0.4 0.0
0.0 0.5 0.0
0.4 0.5 0.0
0.8 0.5 0.0
1.2000000000000002 0.5 0.0
1.6 0.5 0.0
2.0 0.5 0.0
2.4000000000000004 0.5 0.0
2.8000000000000003 0.5 0.0
3.2 0.5 0.0
3.6 0.5 0.0
4.0 0.5 0.0
4.4 0.5 0.0
4.800000000000001 0.5 0.0
5.2 0.5 0.0
5.6000000000000005 0.5 0.0
6.0 0.5 0.0
6.4 0.5 0.0
6.800000000000001 0.5 0.0
7.2 0.5 0.0
7.6000000000000005 0.5 0.0
8.0 0.5 0.0
8.4 0.5 0.0
8.8 0.5 0.0
9.200000000000001 0.5 0.0
9.600000000000001 0.5 0.0
10.0 0.5 0.0
10.4 0.5 0.0
10.8 0.5 0.0
11.200000000000001 0.5 0.0
11.600000000000001 0.5 0.0
12.0 0.5 0.0
12.4 0.5 0.0
12.8 0.5 0.0
13.200000000000001 0.5 0.0
13.600000000000001 0.5 0.0
14.0 0.5 0.0
14.4 0.5 0.0
14.8 0.5 0.0
15.200000000000001 0.5 0.0
15.600000000000001 0.5 0.0
16.0 0.5 0.0
0.0 0.6000000000000001 0.0
0.4 0.6000000000000001 0.0
0.8 0.6000000000000001 0.0
1.2000000000000002 0.6000000000000001 0.0
1.6 0.6000000000000001 0.0
2.0 0.6000000000000001 0.0
2.4000000000000004 0.6000000000000001 0.0
2.8000000000000003 0.6000000000000001 0.0
3.2 0.6000000000000001 0.0
3.6 0.6000000000000001 0.0
4.0 0.6000000000000001 0.0
4.4 0.6000000000000001 0.0
4.800000000000001 0.6000000000000001 0.0
5.2 0.6000000000000001 0.0
5.6000000000000005 0.6000000000000001 0.0
6.0 0.6000000000000001 0.0
6.4 0.6000000000000001 0.0
6.800000000000001 0.6000000000000001 0.0
7.2 0.6000000000000001 0.0
7.6000000000000005 0.6000000000000001 0.0
8.0 0.6000000000000001 0.0
8.4 0.6000000000000001 0.0
8.8 0.6000000000000001 0.0
9.200000000000001 0.6000000000000001 0.0
9.600000000000001 0.6000000000000001 0.0
10.0 0.6000000000000001 0.0
10.4 0.6000000000000001 0.0
10.8 0.6000000000000001 0.0
11.200000000000001 0.6000000000000001 0.0
11.600000000000001 0.6000000000000001 0.0
12.0 0.6000000000000001 0.0
12.4 0.6000000000000001 0.0
12.8 0.6000000000000001 0.0
13.200000000000001 0.6000000000000001 0.0
13.600000000000001 0.6000000000000001 0.0
14.0 0.6000000000000001 0.0
14.4 0.6000000000000001 0.0
14.8 0.6000000000000001 0.0
15.200000000000001 0.6000000000000001 0.0
15.600000000000001 0.6000000000000001 0.0
16.0 0.6000000000000001 0.0
0.0 0.7000000000000001 0.0
0.4 0.7000000000000001 0.0
0.8 0.7000000000000001 0.0
1.2000000000000002 0.7000000000000001 0.0
1.6 0.7000000000000001 0.0
2.0 0.7000000000000001 0.0
2.4000000000000004 0.7000000000000001 0.0
2.8000000000000003 0.7000000000000001 0.0
3.2 0.7000000000000001 0.0
3.6 0.7000000000000001 0.0
4.0 0.7000000000000001 0.0
4.4 0.7000000000000001 0.0
4.800000000000001 0.7000000000000001 0.0
5.2 0.7000000000000001 0.0
5.6000000000000005 0.7000000000000001 0.0
6.0 0.7000000000000001 0.0
6.4 0.7000000000000001 0.0
6.800000000000001 0.7000000000000001 0.0
7.2 0.7000000000000001 0.0
7.6000000000000005 0.7000000000000001 0.0
8.0 0.7000000000000001 0.0
8.4 0.7000000000000001 0.0
8.8 0.7000000000000001 0.0
9.200000000000001 0.7000000000000001 0.0
9.600000000000001 0.7000000000000001 0.0
10.0 0.7000000000000001 0.0
10.4 0.7000000000000001 0.0
10.8 0.7000000000000001 0.0
11.200000000000001 0.7000000000000001 0.0
11.600000000000001 0.7000000000000001 0.0
12.0 0.7000000000000001 0.0
12.4 0.7000000000000001 0.0
12.8 0.7000000000000001 0.0
13.200000000000001 0.7000000000000001 0.0
13.600000000000001 0.7000000000000001 0.0
14.0 0.7000000000000001 0.0
14.4 0.7000000000000001 0.0
14.8 0.7000000000000001 0.0
15.200000000000001 0.7000000000000001 0.0
15.600000000000001 0.7000000000000001 0.0
16.0 0.7000000000000001 0.0
0.0 0.8 0.0
0.4 0.8 0.0
0.8 0.8 0.0
1.2000000000000002 0.8 0.0
1.6 0.8 0.0
2.0 0.8 0.0
2.4000000000000004 0.8 0.0
2.8000000000000003 0.8 0.0
3.2 0.8 0.0
3.6 0.8 0.0
4.0 0.8 0.0
4.4 0.8 0.0
4.800000000000001 0.8 0.0
5.2 0.8 0.0
5.6000000000000005 0.8 0.0
6.0 0.8 0.0
6.4 0.8 0.0
6.800000000000001 0.8 0.0
7.2 0.8 0.0
7.6000000000000005 0.8 0.0
8.0 0.8 0.0
8.4 0.8 0.0
8.8 0.8 0.0
9.200000000000001 0.8 0.0
9.600000000000001 0.8 0.0
10.0 0.8 0.0
10.4 0.8 0.0
10.8 0.8 0.0
11.200000000000001 0.8 0.0
11.600000000000001 0.8 0.0
12.0 0.8 0.0
12.4 0.8 0.0
12.8 0.8 0.0
13.200000000000001 0.8 0.0
13.600000000000001 0.8 0.0
14.0 0.8 0.0
14.4 0.8 0.0
14.8 0.8 0.0
15.200000000000001 0.8 0.0
15.600000000000001 0.8 0.0
16.0 0.8 0.0
0.0 0.9 0.0
0.4 0.9 0.0
0.8 0.9 0.0
1.2000000000000002 0.9 0.0
1.6 0.9 0.0
2.0 0.9 0.0
2.4000000000000004 0.9 0.0
2.8000000000000003 0.9 0.0
3.2 0.9 0.0
3.6 0.9 0.0
4.0 0.9 0.0
4.4 0.9 0.0
4.800000000000001 0.9 0.0
5.2 0.9 0.0
5.6000000000000005 0.9 0.0
6.0 0.9 0.0
6.4 0.9 0.0
6.800000000000001 0.9 0.0
7.2 0.9 0.0
7.6000000000000005 0.9 0.0
8.0 0.9 0.0
8.4 0.9 0.0
8.8 0.9 0.0
9.200000000000001 0.9 0.0
9.600000000000001 0.9 0.0
10.0 0.9 0.0
10.4 0.9 0.0
10.8 0.9 0.0
11.200000000000001 0.9 0.0
11.600000000000001 0.9 0.0
12.0 0.9 0.0
12.4 0.9 0.0
12.8 0.9 0.0
13.200000000000001 0.9 0.0
13.600000000000001 0.9 0.0
14.0 0.9 0.0
14.4 0.9 0.0
14.8 0.9 0.0
15.200000000000001 0.9 0.0
15.600000000000001 0.9 0.0
16.0 0.9 0.0
0.0 1.0 0.0
0.4 1.0 0.0
0.8 1.0 0.0
1.2000000000000002 1.0 0.0
1.6 1.0 0.0
2.0 1.0 0.0
2.4000000000000004 1.0 0.0
2.8000000000000003 1.0 0.0
3.2 1.0 0.0
3.6 1.0 0.0
4.0 1.0 0.0
4.4 1.0 0.0
4.800000000000001 1.0 0.0
5.2 1.0 0.0
5.6000000000000005 1.0 0.0
6.0 1.0 0.0
6.4 1.0 0.0
6.800000000000001 1.0 0.0
7.2 1.0 0.0
7.6000000000000005 1.0 0.0
8.0 1.0 0.0
8.4 1.0 0.0
8.8 1.0 0.0
9.200000000000001 1.0 0.0
9.600000000000001 1.0 0.0
10.0 1.0 0.0
10.4 1.0 0.0
10.8 1.0 0.0
11.200000000000001 1.0 0.0
11.600000000000001 1.0 0.0
12.0 1.0 0.0
12.4 1.0 0.0
12.8 1.0 0.0
13.200000000000001 1.0 0.0
13.600000000000001 1.0 0.0
14.0 1.0 0.0
14.4 1.0 0.0
14.8 1.0 0.0
15.200000000000001 1.0 0.0
15.600000000000001 1.0 0.0
16.0 1.0 0.0
0.0 1.1 0.0
0.4 1.1 0.0
0.8 1.1 0.0
1.2000000000000002 1.1 0.0
1.6 1.1 0.0
[...]
POINT_DATA 861
SCALARS Disp float 2
LOOKUP_TABLE default
0.0 0.0
0.006545301265009461 -0.3308158366710085
0.008073296721973641 -0.6513744415730752
0.008901829825758538 -0.9706736180928789
0.01003386888247296 -1.2895328026831887
0.01202537881130434 -1.6074143516466148
0.01571437165845985 -1.9235909130839295
0.022152885093701332 -2.237144030522553
0.03258378352862268 -2.5469123505335842
0.04835436777512742 -2.8513547766005853
0.07078901906597194 -3.148377347910622
0.10110018816000453 -3.4352622993397777
0.14034893452494945 -3.7087377230272316
0.1894318735552178 -3.965128838143999
0.2490662350516719 -4.200459558990904
0.31971434316996344 -4.410546331883809
0.40146113770943537 -4.591127578125389
0.4938797408595748 -4.738062069731297
0.5959282982338328 -4.847616930404287
0.7059213152090332 -4.916728567513777
0.821206902973189 -4.943387006218666
0.9364924907373393 -4.916728567513622
1.046485507712517 -4.847616930403969
1.1485340650867346 -4.738062069730837
1.2409526682368222 -4.591127578124815
1.3226994627762383 -4.410546331883154
1.3933475708944725 -4.200459558990186
1.4529819323908715 -3.965128838143239
1.5020648714210822 -3.7087377230264527
1.5413136177859734 -3.4352622993390054
1.5716247868799584 -3.1483773479098773
1.594059438170763 -2.8513547765998846
1.6098300224172364 -2.5469123505329376
1.6202609208521355 -2.2371440305219714
1.626699434287362 -1.9235909130834172
1.6303884271345077 -1.6074143516461814
1.6323799370633347 -1.2895328026828343
1.6335119761200478 -0.9706736180926089
1.6343405092238323 -0.6513744415728875
1.6358685046807946 -0.3308158366709063
1.6424138059458009 0.0
0.08251349090440499 -0.00267473366640745
0.08716805290449854 -0.3311557538478255
0.08794952501263884 -0.6514404284964752
0.08867632608721253 -0.9707706119529874
0.08965585782856646 -1.289714029541892
0.09133254017128517 -1.6078455223951684
0.09449513345231664 -1.9245081111937992
0.10013642234453814 -2.2388300955087255
0.10941997848571156 -2.549683090839815
0.12357195208550471 -2.8555304570525326
0.14377294362351478 -3.154257804563513
0.1710912564236921 -3.4431147988858255
0.20646879502421125 -3.7187943076259393
0.25071846801448056 -3.9775836936684805
0.3044932492591294 -4.215459031732101
0.3682254618265316 -4.428165259591462
0.4420211516419355 -4.6113375150529885
0.5255401733490589 -4.760701114840591
0.6178830325861163 -4.872365048351206
0.7174037374285571 -4.943073772847953
0.82120690297317 -4.970397975100756
0.925010068517777 -4.943073772847794
1.024530773360197 -4.872365048350881
1.1168736325972188 -4.760701114840121
1.2003926543042973 -4.611337515052402
1.274188344119651 -4.428165259590794
1.3379205566870023 -4.21545903173137
1.3916953379316006 -3.977583693667707
1.4359450109218184 -3.718794307625147
1.4713225495222895 -3.443114798885041
1.4986408623224237 -3.1542578045627576
1.5188418538603976 -2.855530457051824
1.5329938274601629 -2.5496830908391623
1.5422773836013155 -2.238830095508139
1.5479186724935232 -1.9245081111932838
1.5510812657745465 -1.6078455223947337
1.5527579481172618 -1.2897140295415375
1.5537374798586148 -0.9707706119527174
1.5544642809331881 -0.6514404284962872
1.5552457530413282 -0.33115575384772283
1.5599003150414155 -0.0026747336664048878
0.16395062470033778 -0.0048184300706609964
0.16740332475250427 -0.33132854628207886
0.16784510529840257 -0.6514703160632425
0.16843473212675253 -0.9708549780110501
0.1692742397849348 -1.2898553161909256
0.1706676553035039 -1.6081870602651984
0.1733186629628146 -1.9252718421546224
0.1781653722227501 -2.240283662748938
0.18627940016323552 -2.552118011574989
0.1987693518950402 -2.8592345314617793
0.21667974712528934 -3.159495537508277
0.24094542390960863 -3.4501207481984824
0.27239045164067094 -3.727774555644143
0.3117339040918075 -3.9887140275938706
0.359569455114608 -4.228873853478457
0.4163048286621383 -4.443938607913268
0.4820813338485896 -4.629456102768273
0.5566591879285652 -4.78103278094923
0.6392542402462124 -4.894619671471417
0.7282769462765185 -4.966720013193413
0.8212069029731516 -4.9946338067205724
0.9141368596697784 -4.9667200131932505
1.0031595657000658 -4.8946196714710855
1.0857546180176816 -4.781032780948751
1.1603324720976185 -4.629456102767676
1.2261089772840257 -4.443938607912589
1.2828443508315102 -4.228873853477714
1.3306799018542652 -3.9887140275930846
1.3700233543053564 -3.727774555643339
1.401468382036376 -3.4501207481976874
1.4257340588206568 -3.1594955375075124
1.4436444540508742 -2.859234531461063
1.4561344057826535 -2.552118011574331
1.4642484337231203 -2.240283662748348
1.4690951429830437 -1.9252718421541049
1.4717461506423477 -1.6081870602647623
1.473139566160914 -1.2898553161905708
1.4739790738190957 -0.97085497801078
1.4745687006474455 -0.6514703160630546
1.4750104811933438 -0.3313285462819758
1.4784631812455042 -0.004818430070655521
0.2448146982747874 -0.00655138841216252
0.2474502322684097 -0.3314459451922752
0.24771743654417133 -0.651486074150284
0.24817723567319905 -0.9709213644311813
0.2488847331216733 -1.2899665109617244
0.25002792366504495 -1.608448762857665
0.25219664805849146 -1.925887121817155
0.25625882107776676 -2.241505185016522
0.2631952246627544 -2.554211872341473
0.27399842481082637 -2.862457897654568
0.28958244385039333 -3.164079331113125
0.31075311800615607 -3.4562685531360544
0.33822073598792846 -3.735665934284497
0.37260984249632434 -3.998504670973844
0.4144465456802012 -4.240687260091429
0.4641210451940589 -4.457850026320182
0.5218139545047548 -4.645469472176422
0.5873819394950659 -4.799045707071366
0.660171905598731 -4.9143691794350755
0.738821290109465 -4.987732701601243
0.8212069029731334 -5.016241195839867
0.903592515836796 -4.987732701601076
0.9822419003475131 -4.914369179434737
1.0550318664511513 -4.799045707070879
1.1205998514414284 -4.645469472175815
1.178292760752086 -4.45785002631949
1.227967260265903 -4.240687260090675
1.26980396344974 -3.9985046709730474
1.3041930699580964 -3.735665934283683
1.3316606879398314 -3.45626855313525
1.3528313620955605 -3.1640793311123527
1.3684153811350996 -2.862457897653845
1.3792185812831497 -2.55421187234081
1.3861549848681205 -2.2415051850159284
1.3902171578873854 -1.9258871218166354
1.3923858822808266 -1.6084487628572282
1.3935290728241958 -1.2899665109613692
1.3942365702726698 -0.9709213644309109
1.3946963694016976 -0.6514860741500963
1.3949635736774593 -0.33144594519217174
1.397599107671076 -0.006551388412154341
0.32535380913018297 -0.007958751955724723
0.3273721339763719 -0.3315361211558795
0.3275454926246505 -0.6514949607293772
0.3278972236322734 -0.9709721622374132
0.328483260552959 -1.2900538047059482
0.3294061636881678 -1.6086443280875067
0.3311374587332526 -1.9263633580909107
0.33443441887689696 -2.242497846356625
0.3402009262196207 -2.5559640922342126
0.34931053343965657 -2.8651964564484413
0.3625517993359607 -3.168003278012035
0.38060551610089616 -3.4615509056700975
0.40406773386707917 -3.742460345682196
0.4334710984951282 -4.00694671550965
0.46927799134918763 -4.250888282228436
0.5118479595258316 -4.469886316975337
0.5613938615478672 -4.659361772208257
0.6178736167548157 -4.814722381688211
0.6808198506274337 -4.931617352606342
0.7491691924238019 -5.0061614412832585
0.8212069029731156 -5.035297939658603
0.893244613522424 -5.006161441283089
0.9615939553187768 -4.9316173526060005
1.0245401891913717 -4.814722381687717
1.081019944398291 -4.659361772207642
1.1305658464202935 -4.469886316974637
1.173135814596902 -4.250888282227673
1.2089427074509278 -4.006946715508844
1.2383460720789425 -3.7424603456813736
1.2618082898450935 -3.4615509056692852
1.2798620066100008 -3.168003278011255
1.293103272506281 -2.8651964564477126
1.3022128797262977 -2.555964092233545
1.3079793870690075 -2.242497846356028
1.3112763472126432 -1.9263633580903896
1.3130076422577237 -1.6086443280870693
1.3139305453929309 -1.290053804705593
1.3145165823136165 -0.970972162237143
1.314868313321239 -0.6514949607291897
1.315041671969518 -0.3315361211557757
1.3170599968157022 -0.007958751955714164
0.4056794870532331 -0.009095126622800143
0.4072076185350157 -0.3316082193336106
0.40732702686796174 -0.6515016409039447
0.40759075269184075 -0.971009838030887
0.4080632429484882 -1.2901224088493517
0.4087963109259611 -1.6087871267088556
0.41013543147888987 -1.9267155860007705
0.4127159987435646 -2.243268957279626
0.41732987102937363 -2.557378087435552
0.4247565305030771 -2.8674511725243326
0.43565772322005625 -3.1712663876066074
0.4505914076661352 -3.465965729059591
0.47004190328446993 -3.7481546219850754
0.49444919235856966 -4.014036235297552
0.5242102514252456 -4.259472397034345
0.5596561319939325 -4.480039001058175
0.6010103594840034 -4.6711173818804905
0.6483275304632082 -4.828046101340752
0.7013689550331165 -4.94636277233957
0.7594251429020332 -5.02203223722903
0.8212069029730977 -5.051850280012562
0.8829886630441577 -5.022032237228857
0.941044850913061 -4.946362772339223
0.9940862754829497 -4.828046101340251
1.0414034464621298 -4.671117381879869
1.0827576739521723 -4.480039001057467
1.1182035545208304 -4.259472397033574
1.1479646135874775 -4.014036235296739
1.1723719026615487 -3.7481546219842454
1.1918223982798573 -3.4659657290587718
1.206756082725913 -3.171266387605822
1.2176572754428718 -2.867451172523599
1.2250839349165594 -2.557378087434881
1.2296978072023572 -2.2432689572790263
1.2322783744670247 -1.926715586000248
1.2336174950199505 -1.6087871267084177
1.2343505629974225 -1.2901224088489969
1.2348230532540696 -0.9710098380306168
1.235086779077949 -0.6515016409037572
1.2352061874108948 -0.33160821933350654
1.2367343188926736 -0.009095126622787574
0.48584899313938457 -0.010002204298167658
0.486982625913032 -0.3316660359462028
0.48706785078317394 -0.651508434970191
0.48725757530938324 -0.9710360754952736
0.48762108563493783 -1.2901758373963164
0.4881892589410564 -1.6088895927430467
0.489182427424578 -1.9269624639139544
0.49110542293541337 -2.243834628417556
0.4946179032564104 -2.558462025128275
0.5003877038347186 -2.8692277717870938
0.5089703967252488 -3.1738730185671407
0.5208012078177097 -3.4695162684011027
0.5362533496034242 -3.7527512144287223
0.555675087612321 -4.019774951284307
0.5793983346286593 -4.266439959430471
0.6077169349096474 -4.488305404533156
0.640857369009569 -4.680726034097524
0.6789544033193395 -4.838999533987424
0.7220010786191251 -4.95859206208713
0.7696908597686043 -5.035348136467872
0.8212069029730797 -5.065918888336917
0.8727229461775512 -5.0353481364676975
0.9204127273270192 -4.95859206208678
0.9634594026267889 -4.838999533986919
1.0015564369365384 -4.680726034096896
1.0346968710364373 -4.488305404532442
1.063015471317402 -4.266439959429693
1.086738718333717 -4.0197749512834875
1.1061604563425915 -3.7527512144278865
1.1216125981282856 -3.469516268400278
1.133443409220728 -3.1738730185663506
1.1420261021112421 -2.8692277717863566
1.1477959026895375 -2.5584620251276013
1.151308383010526 -2.2438346284169546
1.153231378521356 -1.926962463913431
1.1542245470048753 -1.6088895927426086
1.1547927203109933 -1.2901758373959613
1.155156230636548 -0.9710360754950033
1.1553459551627574 -0.6515084349700034
1.1554311800328994 -0.33166603594609856
1.1565648128065438 -0.010002204298153397
0.5658997687348599 -0.010713840890411113
0.5667163291492564 -0.3317123832793336
0.5667764091662842 -0.6515158162064454
0.5668999119726966 -0.9710521133052001
0.5671563138811188 -1.2902154813672784
0.5675744200910895 -1.6089620315526738
0.5682724867814752 -1.9271238363895564
0.5696019669458149 -2.244217218477073
0.5720854058410929 -2.559233380514067
0.5762575158298214 -2.8705378206414807
0.5825618221543492 -3.175832851079876
0.591324965803425 -3.472211504333459
0.6028145491942318 -3.756258781804636
0.6172838944660194 -4.024170538936551
0.6349943723708014 -4.271797315912635
0.6562056222197887 -4.494689285510761
0.6811399818417915 -4.688184648850837
0.7099772253698259 -4.8475665831082
0.7429155395324674 -4.968278576963958
0.7800799727211062 -5.046087245260562
0.821206902973061 -5.077499023378562
0.8623338332250129 -5.046087245260386
0.8994982664136429 -4.968278576963605
0.9324365805762723 -4.847566583107691
0.9612738241042906 -4.688184648850204
0.9862081837262758 -4.494689285510041
1.0074194335752453 -4.2717973159118525
1.0251299114800096 -4.024170538935727
1.0395992567517818 -3.756258781803796
1.0510888401425735 -3.4722115043326305
1.0598519837916351 -3.175832851079082
1.0661562901161514 -2.8705378206407404
1.0703284001048705 -2.55923338051339
1.0728118390001422 -2.24421721847647
1.0741413191644784 -1.9271238363890322
1.0748393858548626 -1.6089620315522357
1.0752574920648332 -1.290215481366923
1.0755138939732554 -0.9710521133049298
1.0756373967796677 -0.6515158162062579
1.0756974767966956 -0.33171238327922925
1.07651403721109 -0.010713840890395496
0.6458554067696828 -0.011261422394758379
0.6464260742542614 -0.3317498622299615
0.6464604442199362 -0.6515229382552273
0.6465214225238199 -0.9710588744096013
0.6466722972278148 -1.2902410471922177
0.6469443139213279 -1.6090110916901261
0.6473887773615499 -1.9272212880742143
0.6482022821339156 -2.2444452000165636
0.6497442478460537 -2.559719252685774
0.6524062426414791 -2.8714028716124753
0.6565040786697187 -3.177162751293178
0.6622588729067781 -3.4740672296423156
0.6698404018016891 -3.758693041950496
0.6794123304498582 -4.027238035401095
0.6911595080213595 -4.275557090507993
0.7052970904111273 -4.499201224357302
0.7220537631208093 -4.693500814839055
0.7416429721248149 -4.853737595746882
0.7643579054562685 -4.975383790976573
0.7907368118685811 -5.054198833073066
0.8212069029730419 -5.086557134416811
0.8516769940775004 -5.054198833072888
0.8780559004898075 -4.975383790976217
0.9007708338212526 -4.853737595746369
0.9203600428252466 -4.69350081483842
0.9371167155349165 -4.499201224356578
0.9512542979246724 -4.275557090507206
0.9630014754961626 -4.027238035400268
0.9725734041443226 -3.7586930419496527
0.9801549330392236 -3.4740672296414834
0.9859097272762738 -3.177162751292382
0.990007563304506 -2.871402871611733
0.9926695580999257 -2.5597192526850967
0.9942115238120601 -2.2444452000159596
0.9950250285844237 -1.92722128807369
0.9954694920246451 -1.6090110916896878
0.995741508718158 -1.2902410471918624
0.9958923834221529 -0.971058874409331
0.9959533617260368 -0.6515229382550397
0.9959877316917114 -0.33174986222985703
0.9965583991762885 -0.011261422394741746
0.7257337714319745 -0.011675649913009569
0.7261234625771747 -0.33178163604315786
0.7261273821490141 -0.651527896778361
0.7261261471236127 -0.9710570699767218
0.726174249948018 -1.2902519903744696
0.7262967768042361 -1.6090390139786155
0.7265129241827782 -1.9272731874875264
0.7268905988978412 -2.2445546886209673
0.7275985392755944 -2.5599597695326617
0.7288635203024935 -2.8718584530781417
0.7308572597317303 -3.177892724747985
0.7336919272175242 -3.475110082655021
0.737441220514654 -3.7600794630598564
0.7421875544679929 -4.029002858989866
0.7480403176281494 -4.2777424301440705
0.7551556602571008 -4.501859402907792
0.763758351445249 -4.696691513960141
0.774133987560382 -4.857523735943539
0.7866156109017324 -4.979872456004134
0.8018813878386226 -5.059596753401435
0.8212069029730222 -5.093019157487906
0.8405324181074206 -5.059596753401256
0.8557981950443089 -4.979872456003776
0.8682798183856543 -4.857523735943023
0.8786554545007799 -4.696691513959503
0.8872581456889223 -4.501859402907066
0.8943734883178684 -4.277742430143283
0.9002262514780204 -4.029002858989037
0.904972585431356 -3.7600794630590118
0.9087218787284814 -3.4751100826541865
0.9115565462142714 -3.1778927247471875
0.9135502856435052 -2.871858453077398
0.9148152666704019 -2.559959769531983
0.9155232070481535 -2.244554688620363
0.9159008817632155 -1.927273187487002
0.9161170291417574 -1.6090390139781776
0.9162395559979755 -1.2902519903741143
0.916287658822381 -0.9710570699764517
0.9162864237969797 -0.6515278967781732
0.9162903433688188 -0.3317816360430535
0.916680034514018 -0.01167564991299212
0.8055538229701997 -0.011983454765955661
0.8058145452273545 -0.33181127739707894
0.8057826658744869 -0.6515284822439066
0.8057189843338637 -0.9710470915184714
0.8056667383184496 -1.2902482689625974
0.8056395408526372 -1.609045243471104
0.8056283234427161 -1.927289204570663
0.8056235879067954 -2.2445852875569976
0.8056214726033502 -2.560020216510498
0.8056209690402408 -2.871972945506105
0.8056208559436338 -3.1780840737360414
0.8056176672267922 -3.4753956556725543
0.8056043623241096 -3.760471530599442
0.8055817600706899 -4.02951659155202
0.8055802364701135 -4.278402075573035
0.8056981379948258 -4.5027060636186835
0.8061488612737516 -4.697791767644772
0.8073059445574157 -4.8589690120842395
0.8096610435723467 -4.981770971360726
0.8137690031885997 -5.062189662043964
0.8212069029730017 -5.096754722065424
0.828644802757404 -5.062189662043784
0.8327527623736568 -4.981770971360368
0.8351078613885865 -4.858969012083723
0.8362649446722499 -4.697791767644134
0.8367156679511768 -4.502706063617958
0.8368335694758909 -4.278402075572245
0.8368320458753155 -4.029516591551191
0.8368094436218984 -3.7604715305985965
0.8367961387192177 -3.4753956556717203
0.8367929500023782 -3.178084073735243
0.8367928369057721 -2.8719729455053615
0.8367923333426635 -2.5600202165098196
0.8367902180392185 -2.244585287556393
0.836785482503298 -1.9272892045701389
0.8367742650933769 -1.609045243470666
0.8367470676275648 -1.2902482689622423
0.8366948216121509 -0.9710470915182013
0.8366311400715276 -0.6515284822437187
0.8365992607186599 -0.3318112773969747
0.8368599829758142 -0.011983454765937625
0.885327503370308 -0.012211654246540474
0.8854983285604259 -0.33184085400513114
0.8854311404622323 -0.651523362464909
0.8853054489133537 -0.9710291148860539
0.8851554801443943 -1.290230183154773
0.8849806641310097 -1.6090294660700608
0.8847423639533493 -1.9272706074947938
0.8843547960047801 -2.2445536185726045
0.8836432828123046 -2.5599593590278005
0.8823782315658087 -2.8718583867072063
0.8803842154761159 -3.177892157922765
0.8775413807050163 -3.4751061952386073
0.8737650840864974 -3.7600703313763413
0.8689763465949659 -4.028993983264892
0.8631277119021273 -4.277760836285255
0.8562567433869774 -4.501973917034796
0.8485461085498045 -4.697034330215136
0.8403804143709449 -4.858298480045165
0.8323171235687237 -4.9813004150759825
0.8251652977631532 -5.0620920518202155
0.8212069029729807 -5.097838674518584
0.8172485081828071 -5.062092051820037
0.8100966823772379 -4.981300415075623
0.8020333915750215 -4.85829848004465
0.793867697396169 -4.697034330214497
0.7861570625590049 -4.501973917034071
0.7792860940438627 -4.2777608362844655
0.7734374593510311 -4.028993983264065
0.7686487218595082 -3.760070331375498
0.7648724252409974 -3.4751061952377738
0.7620295904699055 -3.177892157921968
0.7600355743802183 -2.871858386706463
0.758770523133726 -2.559959359027122
0.7580590099412531 -2.2445536185720005
0.757671441992685 -1.9272706074942696
0.757433141815025 -1.6090294660696227
0.7572583258016408 -1.2902301831544178
0.7571083570326815 -0.971029114885784
0.756982665483803 -0.6515233624647212
0.7569154773856096 -0.3318408540050269
0.757086302575727 -0.012211654246522152
0.9650645430790409 -0.01238359518359965
0.9651753443661182 -0.3318694925913307
0.9650767485812526 -0.6515126581615448
0.9648913335823033 -0.9710032501648003
0.9646470026744761 -1.290198323330712
0.9643281640494946 -1.608992027676507
0.9638610789965093 -1.9272156289960705
0.9630391579825096 -2.2444427601316272
0.9614962408177784 -2.5597186321448215
0.9588354419414056 -2.871402857201054
0.9547364134529673 -3.1771611262006294
0.9489729495988786 -3.4740591079986833
0.9413685401280948 -3.7586751129549194
0.9317645020230675 -4.027221933523831
0.9200351465661395 -4.275597657168023
0.9061490382333599 -4.499435887944595
0.8902526085161184 -4.694185675794724
0.8727238522080094 -4.85525884384606
0.8542413682896692 -4.978252191041964
0.8361488093631344 -5.059428121932807
0.8212069029729606 -5.096453493219524
0.8062649965827863 -5.059428121932629
0.7881724376562556 -4.978252191041606
0.7696899537379236 -4.855258843845546
0.7521611974298277 -4.694185675794089
0.7362647677126016 -4.499435887943874