# vtk DataFile Version 3.0
Some data
ASCII
DATASET UNSTRUCTURED_GRID
POINTS 861 float
0.0 0.0 0.0
0.4 0.0 0.0
0.8 0.0 0.0
1.2000000000000002 0.0 0.0
1.6 0.0 0.0
2.0 0.0 0.0
2.4000000000000004 0.0 0.0
2.8000000000000003 0.0 0.0
3.2 0.0 0.0
3.6 0.0 0.0
4.0 0.0 0.0
4.4 0.0 0.0
4.800000000000001 0.0 0.0
5.2 0.0 0.0
5.6000000000000005 0.0 0.0
6.0 0.0 0.0
6.4 0.0 0.0
6.800000000000001 0.0 0.0
7.2 0.0 0.0
7.6000000000000005 0.0 0.0
8.0 0.0 0.0
8.4 0.0 0.0
8.8 0.0 0.0
9.200000000000001 0.0 0.0
9.600000000000001 0.0 0.0
10.0 0.0 0.0
10.4 0.0 0.0
10.8 0.0 0.0
11.200000000000001 0.0 0.0
11.600000000000001 0.0 0.0
12.0 0.0 0.0
12.4 0.0 0.0
12.8 0.0 0.0
13.200000000000001 0.0 0.0
13.600000000000001 0.0 0.0
14.0 0.0 0.0
14.4 0.0 0.0
14.8 0.0 0.0
15.200000000000001 0.0 0.0
15.600000000000001 0.0 0.0
16.0 0.0 0.0
0.0 0.1 0.0
0.4 0.1 0.0
0.8 0.1 0.0
1.2000000000000002 0.1 0.0
1.6 0.1 0.0
2.0 0.1 0.0
2.4000000000000004 0.1 0.0
2.8000000000000003 0.1 0.0
3.2 0.1 0.0
3.6 0.1 0.0
4.0 0.1 0.0
4.4 0.1 0.0
4.800000000000001 0.1 0.0
5.2 0.1 0.0
5.6000000000000005 0.1 0.0
6.0 0.1 0.0
6.4 0.1 0.0
6.800000000000001 0.1 0.0
7.2 0.1 0.0
7.6000000000000005 0.1 0.0
8.0 0.1 0.0
8.4 0.1 0.0
8.8 0.1 0.0
9.200000000000001 0.1 0.0
9.600000000000001 0.1 0.0
10.0 0.1 0.0
10.4 0.1 0.0
10.8 0.1 0.0
11.200000000000001 0.1 0.0
11.600000000000001 0.1 0.0
12.0 0.1 0.0
12.4 0.1 0.0
12.8 0.1 0.0
13.200000000000001 0.1 0.0
13.600000000000001 0.1 0.0
14.0 0.1 0.0
14.4 0.1 0.0
14.8 0.1 0.0
15.200000000000001 0.1 0.0
15.600000000000001 0.1 0.0
16.0 0.1 0.0
0.0 0.2 0.0
0.4 0.2 0.0
0.8 0.2 0.0
1.2000000000000002 0.2 0.0
1.6 0.2 0.0
2.0 0.2 0.0
2.4000000000000004 0.2 0.0
2.8000000000000003 0.2 0.0
3.2 0.2 0.0
3.6 0.2 0.0
4.0 0.2 0.0
4.4 0.2 0.0
4.800000000000001 0.2 0.0
5.2 0.2 0.0
5.6000000000000005 0.2 0.0
6.0 0.2 0.0
6.4 0.2 0.0
6.800000000000001 0.2 0.0
7.2 0.2 0.0
7.6000000000000005 0.2 0.0
8.0 0.2 0.0
8.4 0.2 0.0
8.8 0.2 0.0
9.200000000000001 0.2 0.0
9.600000000000001 0.2 0.0
10.0 0.2 0.0
10.4 0.2 0.0
10.8 0.2 0.0
11.200000000000001 0.2 0.0
11.600000000000001 0.2 0.0
12.0 0.2 0.0
12.4 0.2 0.0
12.8 0.2 0.0
13.200000000000001 0.2 0.0
13.600000000000001 0.2 0.0
14.0 0.2 0.0
14.4 0.2 0.0
14.8 0.2 0.0
15.200000000000001 0.2 0.0
15.600000000000001 0.2 0.0
16.0 0.2 0.0
0.0 0.30000000000000004 0.0
0.4 0.30000000000000004 0.0
0.8 0.30000000000000004 0.0
1.2000000000000002 0.30000000000000004 0.0
1.6 0.30000000000000004 0.0
2.0 0.30000000000000004 0.0
2.4000000000000004 0.30000000000000004 0.0
2.8000000000000003 0.30000000000000004 0.0
3.2 0.30000000000000004 0.0
3.6 0.30000000000000004 0.0
4.0 0.30000000000000004 0.0
4.4 0.30000000000000004 0.0
4.800000000000001 0.30000000000000004 0.0
5.2 0.30000000000000004 0.0
5.6000000000000005 0.30000000000000004 0.0
6.0 0.30000000000000004 0.0
6.4 0.30000000000000004 0.0
6.800000000000001 0.30000000000000004 0.0
7.2 0.30000000000000004 0.0
7.6000000000000005 0.30000000000000004 0.0
8.0 0.30000000000000004 0.0
8.4 0.30000000000000004 0.0
8.8 0.30000000000000004 0.0
9.200000000000001 0.30000000000000004 0.0
9.600000000000001 0.30000000000000004 0.0
10.0 0.30000000000000004 0.0
10.4 0.30000000000000004 0.0
10.8 0.30000000000000004 0.0
11.200000000000001 0.30000000000000004 0.0
11.600000000000001 0.30000000000000004 0.0
12.0 0.30000000000000004 0.0
12.4 0.30000000000000004 0.0
12.8 0.30000000000000004 0.0
13.200000000000001 0.30000000000000004 0.0
13.600000000000001 0.30000000000000004 0.0
14.0 0.30000000000000004 0.0
14.4 0.30000000000000004 0.0
14.8 0.30000000000000004 0.0
15.200000000000001 0.30000000000000004 0.0
15.600000000000001 0.30000000000000004 0.0
16.0 0.30000000000000004 0.0
0.0 0.4 0.0
0.4 0.4 0.0
0.8 0.4 0.0
1.2000000000000002 0.4 0.0
1.6 0.4 0.0
2.0 0.4 0.0
2.4000000000000004 0.4 0.0
2.8000000000000003 0.4 0.0
3.2 0.4 0.0
3.6 0.4 0.0
4.0 0.4 0.0
4.4 0.4 0.0
4.800000000000001 0.4 0.0
5.2 0.4 0.0
5.6000000000000005 0.4 0.0
6.0 0.4 0.0
6.4 0.4 0.0
6.800000000000001 0.4 0.0
7.2 0.4 0.0
7.6000000000000005 0.4 0.0
8.0 0.4 0.0
8.4 0.4 0.0
8.8 0.4 0.0
9.200000000000001 0.4 0.0
9.600000000000001 0.4 0.0
10.0 0.4 0.0
10.4 0.4 0.0
10.8 0.4 0.0
11.200000000000001 0.4 0.0
11.600000000000001 0.4 0.0
12.0 0.4 0.0
12.4 0.4 0.0
12.8 0.4 0.0
13.200000000000001 0.4 0.0
13.600000000000001 0.4 0.0
14.0 0.4 0.0
14.4 0.4 0.0
14.8 0.4 0.0
15.200000000000001 0.4 0.0
15.600000000000001 0.4 0.0
16.0 0.4 0.0
0.0 0.5 0.0
0.4 0.5 0.0
0.8 0.5 0.0
1.2000000000000002 0.5 0.0
1.6 0.5 0.0
2.0 0.5 0.0
2.4000000000000004 0.5 0.0
2.8000000000000003 0.5 0.0
3.2 0.5 0.0
3.6 0.5 0.0
4.0 0.5 0.0
4.4 0.5 0.0
4.800000000000001 0.5 0.0
5.2 0.5 0.0
5.6000000000000005 0.5 0.0
6.0 0.5 0.0
6.4 0.5 0.0
6.800000000000001 0.5 0.0
7.2 0.5 0.0
7.6000000000000005 0.5 0.0
8.0 0.5 0.0
8.4 0.5 0.0
8.8 0.5 0.0
9.200000000000001 0.5 0.0
9.600000000000001 0.5 0.0
10.0 0.5 0.0
10.4 0.5 0.0
10.8 0.5 0.0
11.200000000000001 0.5 0.0
11.600000000000001 0.5 0.0
12.0 0.5 0.0
12.4 0.5 0.0
12.8 0.5 0.0
13.200000000000001 0.5 0.0
13.600000000000001 0.5 0.0
14.0 0.5 0.0
14.4 0.5 0.0
14.8 0.5 0.0
15.200000000000001 0.5 0.0
15.600000000000001 0.5 0.0
16.0 0.5 0.0
0.0 0.6000000000000001 0.0
0.4 0.6000000000000001 0.0
0.8 0.6000000000000001 0.0
1.2000000000000002 0.6000000000000001 0.0
1.6 0.6000000000000001 0.0
2.0 0.6000000000000001 0.0
2.4000000000000004 0.6000000000000001 0.0
2.8000000000000003 0.6000000000000001 0.0
3.2 0.6000000000000001 0.0
3.6 0.6000000000000001 0.0
4.0 0.6000000000000001 0.0
4.4 0.6000000000000001 0.0
4.800000000000001 0.6000000000000001 0.0
5.2 0.6000000000000001 0.0
5.6000000000000005 0.6000000000000001 0.0
6.0 0.6000000000000001 0.0
6.4 0.6000000000000001 0.0
6.800000000000001 0.6000000000000001 0.0
7.2 0.6000000000000001 0.0
7.6000000000000005 0.6000000000000001 0.0
8.0 0.6000000000000001 0.0
8.4 0.6000000000000001 0.0
8.8 0.6000000000000001 0.0
9.200000000000001 0.6000000000000001 0.0
9.600000000000001 0.6000000000000001 0.0
10.0 0.6000000000000001 0.0
10.4 0.6000000000000001 0.0
10.8 0.6000000000000001 0.0
11.200000000000001 0.6000000000000001 0.0
11.600000000000001 0.6000000000000001 0.0
12.0 0.6000000000000001 0.0
12.4 0.6000000000000001 0.0
12.8 0.6000000000000001 0.0
13.200000000000001 0.6000000000000001 0.0
13.600000000000001 0.6000000000000001 0.0
14.0 0.6000000000000001 0.0
14.4 0.6000000000000001 0.0
14.8 0.6000000000000001 0.0
15.200000000000001 0.6000000000000001 0.0
15.600000000000001 0.6000000000000001 0.0
16.0 0.6000000000000001 0.0
0.0 0.7000000000000001 0.0
0.4 0.7000000000000001 0.0
0.8 0.7000000000000001 0.0
1.2000000000000002 0.7000000000000001 0.0
1.6 0.7000000000000001 0.0
2.0 0.7000000000000001 0.0
2.4000000000000004 0.7000000000000001 0.0
2.8000000000000003 0.7000000000000001 0.0
3.2 0.7000000000000001 0.0
3.6 0.7000000000000001 0.0
4.0 0.7000000000000001 0.0
4.4 0.7000000000000001 0.0
4.800000000000001 0.7000000000000001 0.0
5.2 0.7000000000000001 0.0
5.6000000000000005 0.7000000000000001 0.0
6.0 0.7000000000000001 0.0
6.4 0.7000000000000001 0.0
6.800000000000001 0.7000000000000001 0.0
7.2 0.7000000000000001 0.0
7.6000000000000005 0.7000000000000001 0.0
8.0 0.7000000000000001 0.0
8.4 0.7000000000000001 0.0
8.8 0.7000000000000001 0.0
9.200000000000001 0.7000000000000001 0.0
9.600000000000001 0.7000000000000001 0.0
10.0 0.7000000000000001 0.0
10.4 0.7000000000000001 0.0
10.8 0.7000000000000001 0.0
11.200000000000001 0.7000000000000001 0.0
11.600000000000001 0.7000000000000001 0.0
12.0 0.7000000000000001 0.0
12.4 0.7000000000000001 0.0
12.8 0.7000000000000001 0.0
13.200000000000001 0.7000000000000001 0.0
13.600000000000001 0.7000000000000001 0.0
14.0 0.7000000000000001 0.0
14.4 0.7000000000000001 0.0
14.8 0.7000000000000001 0.0
15.200000000000001 0.7000000000000001 0.0
15.600000000000001 0.7000000000000001 0.0
16.0 0.7000000000000001 0.0
0.0 0.8 0.0
0.4 0.8 0.0
0.8 0.8 0.0
1.2000000000000002 0.8 0.0
1.6 0.8 0.0
2.0 0.8 0.0
2.4000000000000004 0.8 0.0
2.8000000000000003 0.8 0.0
3.2 0.8 0.0
3.6 0.8 0.0
4.0 0.8 0.0
4.4 0.8 0.0
4.800000000000001 0.8 0.0
5.2 0.8 0.0
5.6000000000000005 0.8 0.0
6.0 0.8 0.0
6.4 0.8 0.0
6.800000000000001 0.8 0.0
7.2 0.8 0.0
7.6000000000000005 0.8 0.0
8.0 0.8 0.0
8.4 0.8 0.0
8.8 0.8 0.0
9.200000000000001 0.8 0.0
9.600000000000001 0.8 0.0
10.0 0.8 0.0
10.4 0.8 0.0
10.8 0.8 0.0
11.200000000000001 0.8 0.0
11.600000000000001 0.8 0.0
12.0 0.8 0.0
12.4 0.8 0.0
12.8 0.8 0.0
13.200000000000001 0.8 0.0
13.600000000000001 0.8 0.0
14.0 0.8 0.0
14.4 0.8 0.0
14.8 0.8 0.0
15.200000000000001 0.8 0.0
15.600000000000001 0.8 0.0
16.0 0.8 0.0
0.0 0.9 0.0
0.4 0.9 0.0
0.8 0.9 0.0
1.2000000000000002 0.9 0.0
1.6 0.9 0.0
2.0 0.9 0.0
2.4000000000000004 0.9 0.0
2.8000000000000003 0.9 0.0
3.2 0.9 0.0
3.6 0.9 0.0
4.0 0.9 0.0
4.4 0.9 0.0
4.800000000000001 0.9 0.0
5.2 0.9 0.0
5.6000000000000005 0.9 0.0
6.0 0.9 0.0
6.4 0.9 0.0
6.800000000000001 0.9 0.0
7.2 0.9 0.0
7.6000000000000005 0.9 0.0
8.0 0.9 0.0
8.4 0.9 0.0
8.8 0.9 0.0
9.200000000000001 0.9 0.0
9.600000000000001 0.9 0.0
10.0 0.9 0.0
10.4 0.9 0.0
10.8 0.9 0.0
11.200000000000001 0.9 0.0
11.600000000000001 0.9 0.0
12.0 0.9 0.0
12.4 0.9 0.0
12.8 0.9 0.0
13.200000000000001 0.9 0.0
13.600000000000001 0.9 0.0
14.0 0.9 0.0
14.4 0.9 0.0
14.8 0.9 0.0
15.200000000000001 0.9 0.0
15.600000000000001 0.9 0.0
16.0 0.9 0.0
0.0 1.0 0.0
0.4 1.0 0.0
0.8 1.0 0.0
1.2000000000000002 1.0 0.0
1.6 1.0 0.0
2.0 1.0 0.0
2.4000000000000004 1.0 0.0
2.8000000000000003 1.0 0.0
3.2 1.0 0.0
3.6 1.0 0.0
4.0 1.0 0.0
4.4 1.0 0.0
4.800000000000001 1.0 0.0
5.2 1.0 0.0
5.6000000000000005 1.0 0.0
6.0 1.0 0.0
6.4 1.0 0.0
6.800000000000001 1.0 0.0
7.2 1.0 0.0
7.6000000000000005 1.0 0.0
8.0 1.0 0.0
8.4 1.0 0.0
8.8 1.0 0.0
9.200000000000001 1.0 0.0
9.600000000000001 1.0 0.0
10.0 1.0 0.0
10.4 1.0 0.0
10.8 1.0 0.0
11.200000000000001 1.0 0.0
11.600000000000001 1.0 0.0
12.0 1.0 0.0
12.4 1.0 0.0
12.8 1.0 0.0
13.200000000000001 1.0 0.0
13.600000000000001 1.0 0.0
14.0 1.0 0.0
14.4 1.0 0.0
14.8 1.0 0.0
15.200000000000001 1.0 0.0
15.600000000000001 1.0 0.0
16.0 1.0 0.0
0.0 1.1 0.0
0.4 1.1 0.0
0.8 1.1 0.0
1.2000000000000002 1.1 0.0
1.6 1.1 0.0
[...]
POINT_DATA 861
SCALARS Disp float 2
LOOKUP_TABLE default
0.0 0.0
0.00705083443659855 -0.12885927313165055
0.012558685871641374 -0.23774068529365625
0.016976726177294402 -0.34475314054408834
0.022024162142561466 -0.449707408272516
0.02809459818842556 -0.55255681866555
0.03538159697144272 -0.6528098936325906
0.04396284258979854 -0.7499356283349722
0.05386376501063795 -0.8433853060171562
0.0650902581615761 -0.9326169563136484
0.07764144064075788 -1.0170948850039756
0.09151528047926441 -1.0962883103015706
0.10671052716007744 -1.169669714551882
0.12322856496390859 -1.236714109000654
0.1410773928170008 -1.296897290469098
0.1602789152866103 -1.3496886327777204
0.18087627999646344 -1.3945305146865563
0.20292662265699274 -1.4307968967438327
0.22644768949441468 -1.4577398241834398
0.2512864233413337 -1.4744826293478226
0.27695180160944327 -1.4801901953997199
0.3026171798775527 -1.4744826293478224
0.3274559137244717 -1.4577398241834396
0.35097698056189364 -1.4307968967438327
0.373027323222423 -1.3945305146865563
0.39362468793227595 -1.3496886327777204
0.4128262104018856 -1.2968972904690979
0.4306750382549779 -1.236714109000653
0.447193076058809 -1.1696697145518817
0.46238832273962194 -1.0962883103015701
0.4762621625781283 -1.0170948850039756
0.4888133450573103 -0.9326169563136482
0.5000398382082484 -0.8433853060171559
0.5099407606290878 -0.7499356283349715
0.5185220062474436 -0.6528098936325899
0.5258090050304607 -0.5525568186655503
0.5318794410763248 -0.449707408272516
0.5369268770415919 -0.34475314054408857
0.5413449173472449 -0.2377406852936559
0.5468527687822877 -0.12885927313165013
0.5539036032188862 0.0
0.031920182423155814 -0.00437870468812124
0.036310752555900626 -0.1285179379534136
0.03934968005658293 -0.23835897208963794
0.04344341377221793 -0.34518420897659957
0.0479324331199193 -0.4502753512188383
0.053413173375162194 -0.5532333159874278
0.059980532361248 -0.6536173961937717
0.0677097626298661 -0.7508761489821548
0.07662335886044715 -0.8444606365961789
0.0867282361714782 -0.9338271381831947
0.09802464053503915 -1.0184397832282588
0.11051139804958561 -1.0977677529848655
0.12418786836641088 -1.1712836841254746
0.139055693778754 -1.2384629833955785
0.15512200042753282 -1.2987823753017382
0.1724045987487391 -1.3517129392626421
0.19093577209106574 -1.3966990364861644
0.21075202174131982 -1.4331141538912195
0.2318452122363189 -1.4602010411172672
0.2540557518317742 -1.4770573995850993
0.27695180160944316 -1.482809994283506
0.2998478513871122 -1.4770573995850993
0.32205839098256756 -1.4602010411172672
0.3431515814775665 -1.4331141538912193
0.3629678311278206 -1.3966990364861642
0.38149900447014723 -1.3517129392626421
0.3987816027913535 -1.2987823753017382
0.41484790944013245 -1.238462983395578
0.4297157348524755 -1.1712836841254743
0.4433922051693007 -1.0977677529848648
0.45587896268384714 -1.018439783228259
0.4671753670474081 -0.9338271381831944
0.47728024435843913 -0.8444606365961785
0.48619384058902015 -0.7508761489821542
0.4939230708576383 -0.653617396193771
0.500490429843724 -0.553233315987428
0.505971170098967 -0.4502753512188383
0.5104601894466684 -0.3451842089765998
0.5145539231623034 -0.23835897208963763
0.5175928506629857 -0.12851793795341318
0.5219834207957305 -0.004378704688121246
0.06166692509784647 -0.008139892491315992
0.06481609089801726 -0.12826760358680522
0.0664516251042885 -0.23869963939536853
0.06972933789876416 -0.3456038667594485
0.07370989717397204 -0.45076704820058405
0.07856020000657021 -0.5538408822120912
0.08440295199155232 -0.6543393957859421
0.09127633977377281 -0.7517180929040185
0.0992020141668308 -0.8454229269180402
0.10818532295831323 -0.9349100435753115
0.11822717721096226 -1.0196431748404278
0.12932698833141482 -1.0990915276798257
0.14148451369950296 -1.1727278317961753
0.15470119023696868 -1.2400277716556567
0.16898241451507168 -1.3004687222740996
0.18434101274048623 -1.3535229960116317
0.2007992545431528 -1.3986364634185153
0.2183796503101183 -1.4351823781856012
0.23706522782813044 -1.462396390308643
0.256712980059513 -1.479355040348178
0.2769518016094431 -1.485149735486635
0.29719062315937345 -1.479355040348178
0.316838375390756 -1.4623963903086428
0.3355239529087681 -1.4351823781856008
0.35310434867573354 -1.3986364634185153
0.3695625904784001 -1.3535229960116315
0.38492118870381464 -1.3004687222740996
0.3992024129819178 -1.2400277716556565
0.41241908951938344 -1.1727278317961751
0.4245766148874716 -1.099091527679825
0.43567642600792406 -1.0196431748404275
0.4457182802605731 -0.9349100435753112
0.4547015890520555 -0.8454229269180397
0.4626272634451135 -0.751718092904018
0.469500651227334 -0.6543393957859414
0.47534340321231605 -0.5538408822120915
0.4801937060449143 -0.4507670482005841
0.48417426532012214 -0.3456038667594487
0.4874519781145979 -0.23869963939536823
0.48908751232086906 -0.12826760358680475
0.49223667812103983 -0.008139892491316008
0.09012946191857892 -0.011354552869652331
0.09263095891813257 -0.12819399789622413
0.09349819893512842 -0.2388504986240335
0.09593780539593794 -0.34595060328202093
0.09934149661792373 -0.45119492105958686
0.10356108155094211 -0.5543723835234804
0.10866753014120153 -0.6549762255991376
0.11468333684968188 -0.7524608663063077
0.12162000702566798 -0.8462722078916641
0.12948172549439121 -0.9358656827500842
0.13826912795580007 -1.0207050951242793
0.14798205037224074 -1.1002596343892672
0.15862042795711184 -1.174002076543833
0.1701851413555484 -1.241408202695443
0.18267929060410495 -1.3019557124701908
0.19611031508612425 -1.3551177836129542
0.21049171311005305 -1.4003419199587552
0.22583801488664107 -1.43700283469794
0.242137137245026 -1.464333106792542
0.25927909669647303 -1.4813918332678868
0.27695180160944316 -1.4872307949323977
0.29462450652241334 -1.4813918332678868
0.31176646597386043 -1.4643331067925418
0.3280655883322453 -1.4370028346979398
0.3434118901088333 -1.400341919958755
0.35779328813276207 -1.355117783612954
0.3712243126147815 -1.3019557124701906
0.383718461863338 -1.2414082026954425
0.3952831752617746 -1.1740020765438328
0.40592155284664566 -1.1002596343892668
0.4156344752630863 -1.020705095124279
0.424421877724495 -0.9358656827500839
0.4322835961932183 -0.8462722078916635
0.43922026636920447 -0.7524608663063073
0.44523607307768476 -0.6549762255991367
0.4503425216679442 -0.5543723835234806
0.4545621066009626 -0.4511949210595869
0.45796579782294833 -0.3459506032820212
0.46040540428375787 -0.23885049862403318
0.4612726443007538 -0.12819399789622368
0.4637741413003074 -0.011354552869652354
0.11777142701402003 -0.014092563277314923
0.1198827451609062 -0.12828807264038286
0.12034085814805968 -0.23889280740572832
0.12206017565252028 -0.34620684056299933
0.12484812342141478 -0.45155521192646325
0.12842979515854477 -0.5548274664467686
0.13279526096530997 -0.655526564516434
0.1379506872876377 -0.7531043997200113
0.1438977048197553 -0.8470083621714402
0.15063760552063582 -0.9366940768629641
0.1581705833194704 -1.0216255545665283
0.16649660360455593 -1.101272065742239
0.17561563097856653 -1.1751063466832192
0.1855277504495981 -1.2426040710767232
0.1962334699532322 -1.3032429172892193
0.20773480115452575 -1.356496667355607
0.22003777764127166 -1.4018150615305451
0.23315386126137888 -1.4385770826249806
0.24708639515502626 -1.4660176088630557
0.2617705915501951 -1.4831813590111125
0.27695180160944316 -1.4890709879519115
0.2921330116686913 -1.4831813590111125
0.30681720806386015 -1.4660176088630554
0.3207497419575075 -1.4385770826249804
0.3338658255776147 -1.401815061530545
0.34616880206436057 -1.3564966673556067
0.3576701332656542 -1.303242917289219
0.3683758527692883 -1.242604071076723
0.37828797224031985 -1.175106346683219
0.38740699961433045 -1.1012720657422386
0.39573301989941595 -1.0216255545665276
0.40326599769825044 -0.9366940768629636
0.41000589839913104 -0.8470083621714395
0.41595291593124867 -0.7531043997200108
0.42110834225357635 -0.6555265645164332
0.4254738080603416 -0.5548274664467688
0.4290554797974715 -0.45155521192646314
0.43184342756636596 -0.3462068405629996
0.4335627450708266 -0.23889280740572805
0.43402085805798013 -0.12828807264038244
0.4361321762048663 -0.014092563277314944
0.14485915705769484 -0.01641817797913973
0.1466938830805407 -0.12851122886153038
0.14693588707293162 -0.2388827479401931
0.14807278427243156 -0.34637699252917853
0.15024655073805643 -0.45184357981922263
0.153182986413656 -0.5552059590902284
0.156805491743945 -0.6559898017247753
0.16109862337056094 -0.7536484687022629
0.16605528959097696 -0.8476313401730429
0.17167314368178732 -0.9373952090092543
0.17795162845863208 -1.0224045560338535
0.18489068813550877 -1.1021288075396638
0.19249018471255694 -1.1760405889471608
0.20074929831960506 -1.243615248586278
0.20966589115952164 -1.3043301026084066
0.2192367708265273 -1.3576593540311528
0.22946164015411177 -1.403055902980703
0.24035239589675275 -1.4399066108565135
0.2519354000088523 -1.4674551439909451
0.26420085305076063 -1.4847348666948517
0.27695180160944316 -1.4906856355454905
0.2897027501681258 -1.4847348666948517
0.3019682032100341 -1.467455143990945
0.3135512073221336 -1.4399066108565133
0.3244419630647746 -1.403055902980703
0.33466683239235906 -1.357659354031153
0.34423771205936476 -1.3043301026084066
0.35315430489928135 -1.2436152485862777
0.3614134185063294 -1.1760405889471603
0.36901291508337764 -1.1021288075396634
0.3759519747602542 -1.022404556033853
0.382230459537099 -0.937395209009254
0.3878483136279094 -0.8476313401730424
0.3928049798483254 -0.7536484687022623
0.3970981114749414 -0.6559898017247745
0.4007206168052303 -0.5552059590902286
0.4036570524808299 -0.45184357981922246
0.40583081894645473 -0.34637699252917875
0.4069677161459547 -0.23888274794019282
0.40720972013834555 -0.12851122886152996
0.4090444461611915 -0.016418177979139744
0.17155873655204124 -0.018387267220739804
0.17316683541304498 -0.12882062097668878
0.17328921153625274 -0.23885378376127794
0.17396194588034622 -0.3464736400564997
0.17554843084708321 -0.4520589794390852
0.1778384158747809 -0.5555075519975191
0.18071724117784924 -0.6563657976104235
0.18414721768742848 -0.7540928983475879
0.18811293088660302 -0.8481410927193137
0.19260848777288975 -0.9379690567148931
0.197632354397039 -1.0230420891294079
0.20318435680700006 -1.1028298445829807
0.20926418058454677 -1.1768047724588033
0.21587010395503856 -1.2444416883616174
0.22299750816372588 -1.3052172228161285
0.23063842079456115 -1.3586058497103985
0.23878703573333235 -1.4040646852307717
0.2474575893518949 -1.4409925724636379
0.25670431384591086 -1.4686495584601402
0.26658107557154315 -1.4860615372797663
0.27695180160944316 -1.4920883648275072
0.28732252764734334 -1.4860615372797663
0.29719928937297546 -1.46864955846014
0.3064460138669915 -1.4409925724636377
0.315116567485554 -1.4040646852307714
0.3232651824243252 -1.3586058497103985
0.3309060950551605 -1.3052172228161283
0.3380334992638478 -1.244441688361617
0.34463942263433955 -1.1768047724588029
0.3507192464118863 -1.1028298445829805
0.3562712488218473 -1.0230420891294074
0.3612951154459966 -0.9379690567148927
0.36579067233228335 -0.8481410927193133
0.36975638553145784 -0.7540928983475874
0.3731863620410371 -0.6563657976104228
0.3760651873441054 -0.5555075519975193
0.3783551723718031 -0.452058979439085
0.3799416573385401 -0.34647364005650005
0.38061439168263356 -0.2388537837612776
0.3807367678058413 -0.12882062097668837
0.3823448666668451 -0.01838726722073981
0.19798120761577226 -0.020046802746979665
0.19938436195162632 -0.12917828276309873
0.19942908293865189 -0.23882301291921337
0.19972734024780597 -0.3465104753637923
0.20076426812492162 -0.4522034354964718
0.20241373886054057 -0.5557323434211054
0.20454965958082458 -0.6566546431604032
0.20711639861509099 -0.7544376309807843
0.21009077312033153 -0.848537572974451
0.21346376631285197 -0.9384155933920737
0.21723284985500088 -1.023538134968891
0.2213976724958841 -1.103375162103057
0.22595772533922076 -1.177398890385822
0.23091048815031506 -1.2450834215844007
0.23624921560662293 -1.305904406865735
0.2419617545474935 -1.359336423535479
0.24803726281680605 -1.4048417873775858
0.2544925281320897 -1.4418356120716458
0.2614117976222583 -1.4696031217252672
0.2689208968284648 -1.4871686330830938
0.27695180160944316 -1.4932917794353922
0.28498270639042156 -1.4871686330830938
0.29249180559662813 -1.469603121725267
0.29941107508679665 -1.4418356120716458
0.3058663404020803 -1.4048417873775856
0.3119418486713929 -1.359336423535479
0.31765438761226344 -1.3059044068657346
0.32299311506857126 -1.2450834215844
0.32794587787966556 -1.1773988903858217
0.33250593072300216 -1.1033751621030565
0.3366707533638854 -1.0235381349688906
0.34043983690603435 -0.9384155933920733
0.34381283009855473 -0.8485375729744505
0.34678720460379536 -0.7544376309807839
0.34935394363806177 -0.6566546431604026
0.3514898643583458 -0.5557323434211056
0.3531393350939647 -0.4522034354964717
0.35417626297108035 -0.34651047536379265
0.3544745202802344 -0.23882301291921304
0.35451924126726003 -0.12917828276309834
0.355922395603114 -0.020046802746979668
0.22420549418556673 -0.021435698249406172
0.2254133082511745 -0.12955364599192862
0.2253926180508937 -0.23879692617393652
0.22537957606760958 -0.3464992775974255
0.22590611226473314 -0.45228082990915697
0.22692647377117128 -0.5558811050062267
0.2283220406496506 -0.6568566037597074
0.2300260558695907 -0.754682709853324
0.2320089234591309 -0.8488207505721408
0.2342590937526987 -0.9387347879768286
0.2367731987829727 -1.0238926693388812
0.2395507033000765 -1.1037647469889327
0.2425909288755194 -1.177822958317008
0.2458907417682354 -1.2455405479919417
0.24944178283900237 -1.3063919371261177
0.25322850103780054 -1.3598515794271677
0.25723521788473597 -1.4053876891087236
0.2614797859147366 -1.4424357796474752
0.2660756977191701 -1.470316367988776
0.2712288880833232 -1.488061523784707
0.27695180160944316 -1.4943080893697165
0.2826747151355632 -1.488061523784707
0.2878279054997163 -1.4703163679887759
0.29242381730414974 -1.4424357796474752
0.2966683853341503 -1.4053876891087236
0.3006751021810858 -1.359851579427168
0.3044618203798839 -1.3063919371261172
0.30801286145065093 -1.2455405479919412
0.31131267434336696 -1.1778229583170075
0.31435289991880977 -1.1037647469889322
0.3171304044359136 -1.0238926693388808
0.3196445094661876 -0.9387347879768282
0.3218946797597554 -0.8488207505721403
0.3238775473492956 -0.7546827098533235
0.32558156256923576 -0.6568566037597068
0.32697712944771506 -0.5558811050062269
0.3279974909541532 -0.4522808299091569
0.3285240271512767 -0.34649927759742577
0.3285109851679926 -0.23879692617393622
0.3284902949677118 -0.12955364599192823
0.32969810903331953 -0.02143569824940618
0.250290848801986 -0.02258622815204003
0.25130848105442805 -0.1299234611173416
0.25121929460973974 -0.23877566540730766
0.2509368859094954 -0.3464489894024505
0.2509886595554498 -0.45229577669781135
0.25139440370619687 -0.5559552346266636
0.2520538016641201 -0.656972121000814
0.2528961008734355 -0.7548282512636948
0.25388746142637214 -0.848990615426124
0.2550145692781512 -0.9389266070341378
0.25627347970456954 -1.0241056642859412
0.25766351813563637 -1.1039985883545231
0.2591838940969912 -1.1780770102861808
0.26083110108087776 -1.245813221127624
0.2625957984206751 -1.3066802209001156
0.2644600335967873 -1.3601520340776827
0.26640341577700916 -1.4057029851060687
0.2684417922783335 -1.4427925320471635
0.27071373406003485 -1.4707879381343512
0.27351298130046203 -1.4887435664754396
0.27695180160944316 -1.4951497728450345
0.28039062191842434 -1.4887435664754396
0.2831898691588515 -1.4707879381343512
0.28546181094055284 -1.4427925320471633
0.28750018744187716 -1.4057029851060687
0.289443569622099 -1.3601520340776827
0.2913078047982112 -1.3066802209001152
0.2930725021380085 -1.2458132211276238
0.2947197091218951 -1.1780770102861806
0.29624008508324984 -1.1039985883545227
0.2976301235143167 -1.024105664285941
0.2988890339407352 -0.9389266070341373
0.3000161417925142 -0.8489906154261236
0.3010075023454508 -0.7548282512636945
0.3018498015547662 -0.6569721210008134
0.3025091995126895 -0.555955234626664
0.3029149436634366 -0.4522957766978112
0.30296671730939084 -0.3464489894024508
0.3026843086091465 -0.23877566540730738
0.3025951221644583 -0.1299234611173412
0.3036127544169003 -0.02258622815204002
0.276283950092791 -0.023525568942947262
0.27711576623684175 -0.13027082178088054
0.276947942493778 -0.23875591113175532
0.2764223499986215 -0.34636577987865
0.2760293826874541 -0.4522528476075908
0.2758359615534399 -0.5559565509983492
0.2757645206646672 -0.6570017968301893
0.27574649054602096 -0.7548744222997362
0.2757464523557548 -0.8490471734975918
0.27575027619252684 -0.9389910167727209
0.27575376475677177 -1.0241770893673066
0.2757561835270755 -1.1040766772158765
0.27575670922728246 -1.1781610932514295
0.27575173174075274 -1.245901629777989
0.2757316287920202 -1.306769753786338
0.2756772832157351 -1.360238695314163
0.2755639627542466 -1.4057884494395774
0.275401174478982 -1.4429048348729947
0.27534424836034554 -1.471014423050687
0.27578090952384793 -1.4892157969946254
0.27695180160944316 -1.4958303410986216
0.2781226936950384 -1.4892157969946251
0.27855935485854083 -1.4710144230506867
0.27850242873990433 -1.4429048348729945
0.27833964046463966 -1.4057884494395771
0.2782263200031511 -1.360238695314163
0.2781719744268662 -1.3067697537863376
0.2781518714781335 -1.2459016297779886
0.27814689399160375 -1.1781610932514293
0.2781474196918108 -1.1040766772158759
0.27814983846211444 -1.0241770893673063
0.2781533270263595 -0.9389910167727207
0.27815715086313153 -0.8490471734975915
0.27815711267286536 -0.7548744222997358
0.2781390825542191 -0.6570017968301889
0.27806764166544645 -0.5559565509983495
0.27787422053143224 -0.45225284760759066
0.27748125322026485 -0.3463657798786503
0.2769556607251083 -0.238755911131755
0.2767878369820445 -0.13027082178088017
0.2776196531260953 -0.023525568942947255
0.30222306593575293 -0.024277244338764145
0.3028744159163247 -0.1305840019769559
0.3026154783014974 -0.2387327440595235
0.30186189444444894 -0.34625350642902497
0.3010482137058412 -0.45215613051616005
0.3002704578399598 -0.5558870507042785
0.29947400128933 -0.6569463435954005
0.2985972372174586 -0.7548214206606935
0.29760595570023674 -0.8489904395670602
0.2964862825792788 -0.9389279838589641
0.2952341187901789 -1.0241069128555647
0.29384876167755286 -1.1039990054972497
0.29232944279266565 -1.1780752606832006
0.2906727217920742 -1.2458059776578985
0.2888693969014233 -1.3066610743626423
0.2869006469623249 -1.360112629908819
0.2847384445661455 -1.4056451417588853
0.28238103100599554 -1.4427713903009358
0.27998707989688926 -1.470990231938797
0.27804075422423397 -1.4894763604662666
0.27695180160944316 -1.4963652849601135
0.27586284899465235 -1.4894763604662664
0.2739165233219972 -1.4709902319387969
0.2715225722128909 -1.4427713903009356
0.26916515865274077 -1.4056451417588853
0.26700295625656134 -1.360112629908819
0.265034206317463 -1.306661074362642
0.26323088142681206 -1.245805977657898
0.2615741604262205 -1.1780752606832001
0.2600548415413334 -1.103999005497249
0.25866948442870735 -1.0241069128555644
0.25741732063960754 -0.938927983858964
0.2562976475186496 -0.8489904395670599
0.2553063660014277 -0.7548214206606931
0.2544296019295563 -0.6569463435953999
0.2536331453789265 -0.5558870507042789
0.2528553895130451 -0.45215613051616005
0.25204170877443743 -0.34625350642902525
0.2512881249173889 -0.23873274405952322
0.25102918730256163 -0.13058400197695555
0.25168053728313333 -0.024277244338764162
0.3281404988053481 -0.024862391805812355
0.3286186283549657 -0.13085538111861658
0.32825649428324005 -0.23870080620671633
0.32728297462199724 -0.3461142871767076
0.32606709259497335 -0.4520090292871074
0.3247181522832277 -0.5557486890820645
0.3232023256834016 -0.656806509678901
0.32146841332880594 -0.7546694520531225
0.3194860274298616 -0.8488204295953866
0.3172426419953837 -0.9387374753544613
0.31473459894983075 -1.0238951029060481
0.3119613100678691 -1.1037655646743598
0.30892214134850093 -1.1778195656720996