# vtk DataFile Version 3.0
Some data
ASCII
DATASET UNSTRUCTURED_GRID
POINTS 861 float
0.0 0.0 0.0
0.4 0.0 0.0
0.8 0.0 0.0
1.2000000000000002 0.0 0.0
1.6 0.0 0.0
2.0 0.0 0.0
2.4000000000000004 0.0 0.0
2.8000000000000003 0.0 0.0
3.2 0.0 0.0
3.6 0.0 0.0
4.0 0.0 0.0
4.4 0.0 0.0
4.800000000000001 0.0 0.0
5.2 0.0 0.0
5.6000000000000005 0.0 0.0
6.0 0.0 0.0
6.4 0.0 0.0
6.800000000000001 0.0 0.0
7.2 0.0 0.0
7.6000000000000005 0.0 0.0
8.0 0.0 0.0
8.4 0.0 0.0
8.8 0.0 0.0
9.200000000000001 0.0 0.0
9.600000000000001 0.0 0.0
10.0 0.0 0.0
10.4 0.0 0.0
10.8 0.0 0.0
11.200000000000001 0.0 0.0
11.600000000000001 0.0 0.0
12.0 0.0 0.0
12.4 0.0 0.0
12.8 0.0 0.0
13.200000000000001 0.0 0.0
13.600000000000001 0.0 0.0
14.0 0.0 0.0
14.4 0.0 0.0
14.8 0.0 0.0
15.200000000000001 0.0 0.0
15.600000000000001 0.0 0.0
16.0 0.0 0.0
0.0 0.1 0.0
0.4 0.1 0.0
0.8 0.1 0.0
1.2000000000000002 0.1 0.0
1.6 0.1 0.0
2.0 0.1 0.0
2.4000000000000004 0.1 0.0
2.8000000000000003 0.1 0.0
3.2 0.1 0.0
3.6 0.1 0.0
4.0 0.1 0.0
4.4 0.1 0.0
4.800000000000001 0.1 0.0
5.2 0.1 0.0
5.6000000000000005 0.1 0.0
6.0 0.1 0.0
6.4 0.1 0.0
6.800000000000001 0.1 0.0
7.2 0.1 0.0
7.6000000000000005 0.1 0.0
8.0 0.1 0.0
8.4 0.1 0.0
8.8 0.1 0.0
9.200000000000001 0.1 0.0
9.600000000000001 0.1 0.0
10.0 0.1 0.0
10.4 0.1 0.0
10.8 0.1 0.0
11.200000000000001 0.1 0.0
11.600000000000001 0.1 0.0
12.0 0.1 0.0
12.4 0.1 0.0
12.8 0.1 0.0
13.200000000000001 0.1 0.0
13.600000000000001 0.1 0.0
14.0 0.1 0.0
14.4 0.1 0.0
14.8 0.1 0.0
15.200000000000001 0.1 0.0
15.600000000000001 0.1 0.0
16.0 0.1 0.0
0.0 0.2 0.0
0.4 0.2 0.0
0.8 0.2 0.0
1.2000000000000002 0.2 0.0
1.6 0.2 0.0
2.0 0.2 0.0
2.4000000000000004 0.2 0.0
2.8000000000000003 0.2 0.0
3.2 0.2 0.0
3.6 0.2 0.0
4.0 0.2 0.0
4.4 0.2 0.0
4.800000000000001 0.2 0.0
5.2 0.2 0.0
5.6000000000000005 0.2 0.0
6.0 0.2 0.0
6.4 0.2 0.0
6.800000000000001 0.2 0.0
7.2 0.2 0.0
7.6000000000000005 0.2 0.0
8.0 0.2 0.0
8.4 0.2 0.0
8.8 0.2 0.0
9.200000000000001 0.2 0.0
9.600000000000001 0.2 0.0
10.0 0.2 0.0
10.4 0.2 0.0
10.8 0.2 0.0
11.200000000000001 0.2 0.0
11.600000000000001 0.2 0.0
12.0 0.2 0.0
12.4 0.2 0.0
12.8 0.2 0.0
13.200000000000001 0.2 0.0
13.600000000000001 0.2 0.0
14.0 0.2 0.0
14.4 0.2 0.0
14.8 0.2 0.0
15.200000000000001 0.2 0.0
15.600000000000001 0.2 0.0
16.0 0.2 0.0
0.0 0.30000000000000004 0.0
0.4 0.30000000000000004 0.0
0.8 0.30000000000000004 0.0
1.2000000000000002 0.30000000000000004 0.0
1.6 0.30000000000000004 0.0
2.0 0.30000000000000004 0.0
2.4000000000000004 0.30000000000000004 0.0
2.8000000000000003 0.30000000000000004 0.0
3.2 0.30000000000000004 0.0
3.6 0.30000000000000004 0.0
4.0 0.30000000000000004 0.0
4.4 0.30000000000000004 0.0
4.800000000000001 0.30000000000000004 0.0
5.2 0.30000000000000004 0.0
5.6000000000000005 0.30000000000000004 0.0
6.0 0.30000000000000004 0.0
6.4 0.30000000000000004 0.0
6.800000000000001 0.30000000000000004 0.0
7.2 0.30000000000000004 0.0
7.6000000000000005 0.30000000000000004 0.0
8.0 0.30000000000000004 0.0
8.4 0.30000000000000004 0.0
8.8 0.30000000000000004 0.0
9.200000000000001 0.30000000000000004 0.0
9.600000000000001 0.30000000000000004 0.0
10.0 0.30000000000000004 0.0
10.4 0.30000000000000004 0.0
10.8 0.30000000000000004 0.0
11.200000000000001 0.30000000000000004 0.0
11.600000000000001 0.30000000000000004 0.0
12.0 0.30000000000000004 0.0
12.4 0.30000000000000004 0.0
12.8 0.30000000000000004 0.0
13.200000000000001 0.30000000000000004 0.0
13.600000000000001 0.30000000000000004 0.0
14.0 0.30000000000000004 0.0
14.4 0.30000000000000004 0.0
14.8 0.30000000000000004 0.0
15.200000000000001 0.30000000000000004 0.0
15.600000000000001 0.30000000000000004 0.0
16.0 0.30000000000000004 0.0
0.0 0.4 0.0
0.4 0.4 0.0
0.8 0.4 0.0
1.2000000000000002 0.4 0.0
1.6 0.4 0.0
2.0 0.4 0.0
2.4000000000000004 0.4 0.0
2.8000000000000003 0.4 0.0
3.2 0.4 0.0
3.6 0.4 0.0
4.0 0.4 0.0
4.4 0.4 0.0
4.800000000000001 0.4 0.0
5.2 0.4 0.0
5.6000000000000005 0.4 0.0
6.0 0.4 0.0
6.4 0.4 0.0
6.800000000000001 0.4 0.0
7.2 0.4 0.0
7.6000000000000005 0.4 0.0
8.0 0.4 0.0
8.4 0.4 0.0
8.8 0.4 0.0
9.200000000000001 0.4 0.0
9.600000000000001 0.4 0.0
10.0 0.4 0.0
10.4 0.4 0.0
10.8 0.4 0.0
11.200000000000001 0.4 0.0
11.600000000000001 0.4 0.0
12.0 0.4 0.0
12.4 0.4 0.0
12.8 0.4 0.0
13.200000000000001 0.4 0.0
13.600000000000001 0.4 0.0
14.0 0.4 0.0
14.4 0.4 0.0
14.8 0.4 0.0
15.200000000000001 0.4 0.0
15.600000000000001 0.4 0.0
16.0 0.4 0.0
0.0 0.5 0.0
0.4 0.5 0.0
0.8 0.5 0.0
1.2000000000000002 0.5 0.0
1.6 0.5 0.0
2.0 0.5 0.0
2.4000000000000004 0.5 0.0
2.8000000000000003 0.5 0.0
3.2 0.5 0.0
3.6 0.5 0.0
4.0 0.5 0.0
4.4 0.5 0.0
4.800000000000001 0.5 0.0
5.2 0.5 0.0
5.6000000000000005 0.5 0.0
6.0 0.5 0.0
6.4 0.5 0.0
6.800000000000001 0.5 0.0
7.2 0.5 0.0
7.6000000000000005 0.5 0.0
8.0 0.5 0.0
8.4 0.5 0.0
8.8 0.5 0.0
9.200000000000001 0.5 0.0
9.600000000000001 0.5 0.0
10.0 0.5 0.0
10.4 0.5 0.0
10.8 0.5 0.0
11.200000000000001 0.5 0.0
11.600000000000001 0.5 0.0
12.0 0.5 0.0
12.4 0.5 0.0
12.8 0.5 0.0
13.200000000000001 0.5 0.0
13.600000000000001 0.5 0.0
14.0 0.5 0.0
14.4 0.5 0.0
14.8 0.5 0.0
15.200000000000001 0.5 0.0
15.600000000000001 0.5 0.0
16.0 0.5 0.0
0.0 0.6000000000000001 0.0
0.4 0.6000000000000001 0.0
0.8 0.6000000000000001 0.0
1.2000000000000002 0.6000000000000001 0.0
1.6 0.6000000000000001 0.0
2.0 0.6000000000000001 0.0
2.4000000000000004 0.6000000000000001 0.0
2.8000000000000003 0.6000000000000001 0.0
3.2 0.6000000000000001 0.0
3.6 0.6000000000000001 0.0
4.0 0.6000000000000001 0.0
4.4 0.6000000000000001 0.0
4.800000000000001 0.6000000000000001 0.0
5.2 0.6000000000000001 0.0
5.6000000000000005 0.6000000000000001 0.0
6.0 0.6000000000000001 0.0
6.4 0.6000000000000001 0.0
6.800000000000001 0.6000000000000001 0.0
7.2 0.6000000000000001 0.0
7.6000000000000005 0.6000000000000001 0.0
8.0 0.6000000000000001 0.0
8.4 0.6000000000000001 0.0
8.8 0.6000000000000001 0.0
9.200000000000001 0.6000000000000001 0.0
9.600000000000001 0.6000000000000001 0.0
10.0 0.6000000000000001 0.0
10.4 0.6000000000000001 0.0
10.8 0.6000000000000001 0.0
11.200000000000001 0.6000000000000001 0.0
11.600000000000001 0.6000000000000001 0.0
12.0 0.6000000000000001 0.0
12.4 0.6000000000000001 0.0
12.8 0.6000000000000001 0.0
13.200000000000001 0.6000000000000001 0.0
13.600000000000001 0.6000000000000001 0.0
14.0 0.6000000000000001 0.0
14.4 0.6000000000000001 0.0
14.8 0.6000000000000001 0.0
15.200000000000001 0.6000000000000001 0.0
15.600000000000001 0.6000000000000001 0.0
16.0 0.6000000000000001 0.0
0.0 0.7000000000000001 0.0
0.4 0.7000000000000001 0.0
0.8 0.7000000000000001 0.0
1.2000000000000002 0.7000000000000001 0.0
1.6 0.7000000000000001 0.0
2.0 0.7000000000000001 0.0
2.4000000000000004 0.7000000000000001 0.0
2.8000000000000003 0.7000000000000001 0.0
3.2 0.7000000000000001 0.0
3.6 0.7000000000000001 0.0
4.0 0.7000000000000001 0.0
4.4 0.7000000000000001 0.0
4.800000000000001 0.7000000000000001 0.0
5.2 0.7000000000000001 0.0
5.6000000000000005 0.7000000000000001 0.0
6.0 0.7000000000000001 0.0
6.4 0.7000000000000001 0.0
6.800000000000001 0.7000000000000001 0.0
7.2 0.7000000000000001 0.0
7.6000000000000005 0.7000000000000001 0.0
8.0 0.7000000000000001 0.0
8.4 0.7000000000000001 0.0
8.8 0.7000000000000001 0.0
9.200000000000001 0.7000000000000001 0.0
9.600000000000001 0.7000000000000001 0.0
10.0 0.7000000000000001 0.0
10.4 0.7000000000000001 0.0
10.8 0.7000000000000001 0.0
11.200000000000001 0.7000000000000001 0.0
11.600000000000001 0.7000000000000001 0.0
12.0 0.7000000000000001 0.0
12.4 0.7000000000000001 0.0
12.8 0.7000000000000001 0.0
13.200000000000001 0.7000000000000001 0.0
13.600000000000001 0.7000000000000001 0.0
14.0 0.7000000000000001 0.0
14.4 0.7000000000000001 0.0
14.8 0.7000000000000001 0.0
15.200000000000001 0.7000000000000001 0.0
15.600000000000001 0.7000000000000001 0.0
16.0 0.7000000000000001 0.0
0.0 0.8 0.0
0.4 0.8 0.0
0.8 0.8 0.0
1.2000000000000002 0.8 0.0
1.6 0.8 0.0
2.0 0.8 0.0
2.4000000000000004 0.8 0.0
2.8000000000000003 0.8 0.0
3.2 0.8 0.0
3.6 0.8 0.0
4.0 0.8 0.0
4.4 0.8 0.0
4.800000000000001 0.8 0.0
5.2 0.8 0.0
5.6000000000000005 0.8 0.0
6.0 0.8 0.0
6.4 0.8 0.0
6.800000000000001 0.8 0.0
7.2 0.8 0.0
7.6000000000000005 0.8 0.0
8.0 0.8 0.0
8.4 0.8 0.0
8.8 0.8 0.0
9.200000000000001 0.8 0.0
9.600000000000001 0.8 0.0
10.0 0.8 0.0
10.4 0.8 0.0
10.8 0.8 0.0
11.200000000000001 0.8 0.0
11.600000000000001 0.8 0.0
12.0 0.8 0.0
12.4 0.8 0.0
12.8 0.8 0.0
13.200000000000001 0.8 0.0
13.600000000000001 0.8 0.0
14.0 0.8 0.0
14.4 0.8 0.0
14.8 0.8 0.0
15.200000000000001 0.8 0.0
15.600000000000001 0.8 0.0
16.0 0.8 0.0
0.0 0.9 0.0
0.4 0.9 0.0
0.8 0.9 0.0
1.2000000000000002 0.9 0.0
1.6 0.9 0.0
2.0 0.9 0.0
2.4000000000000004 0.9 0.0
2.8000000000000003 0.9 0.0
3.2 0.9 0.0
3.6 0.9 0.0
4.0 0.9 0.0
4.4 0.9 0.0
4.800000000000001 0.9 0.0
5.2 0.9 0.0
5.6000000000000005 0.9 0.0
6.0 0.9 0.0
6.4 0.9 0.0
6.800000000000001 0.9 0.0
7.2 0.9 0.0
7.6000000000000005 0.9 0.0
8.0 0.9 0.0
8.4 0.9 0.0
8.8 0.9 0.0
9.200000000000001 0.9 0.0
9.600000000000001 0.9 0.0
10.0 0.9 0.0
10.4 0.9 0.0
10.8 0.9 0.0
11.200000000000001 0.9 0.0
11.600000000000001 0.9 0.0
12.0 0.9 0.0
12.4 0.9 0.0
12.8 0.9 0.0
13.200000000000001 0.9 0.0
13.600000000000001 0.9 0.0
14.0 0.9 0.0
14.4 0.9 0.0
14.8 0.9 0.0
15.200000000000001 0.9 0.0
15.600000000000001 0.9 0.0
16.0 0.9 0.0
0.0 1.0 0.0
0.4 1.0 0.0
0.8 1.0 0.0
1.2000000000000002 1.0 0.0
1.6 1.0 0.0
2.0 1.0 0.0
2.4000000000000004 1.0 0.0
2.8000000000000003 1.0 0.0
3.2 1.0 0.0
3.6 1.0 0.0
4.0 1.0 0.0
4.4 1.0 0.0
4.800000000000001 1.0 0.0
5.2 1.0 0.0
5.6000000000000005 1.0 0.0
6.0 1.0 0.0
6.4 1.0 0.0
6.800000000000001 1.0 0.0
7.2 1.0 0.0
7.6000000000000005 1.0 0.0
8.0 1.0 0.0
8.4 1.0 0.0
8.8 1.0 0.0
9.200000000000001 1.0 0.0
9.600000000000001 1.0 0.0
10.0 1.0 0.0
10.4 1.0 0.0
10.8 1.0 0.0
11.200000000000001 1.0 0.0
11.600000000000001 1.0 0.0
12.0 1.0 0.0
12.4 1.0 0.0
12.8 1.0 0.0
13.200000000000001 1.0 0.0
13.600000000000001 1.0 0.0
14.0 1.0 0.0
14.4 1.0 0.0
14.8 1.0 0.0
15.200000000000001 1.0 0.0
15.600000000000001 1.0 0.0
16.0 1.0 0.0
0.0 1.1 0.0
0.4 1.1 0.0
0.8 1.1 0.0
1.2000000000000002 1.1 0.0
1.6 1.1 0.0
[...]
POINT_DATA 861
SCALARS Disp float 2
LOOKUP_TABLE default
0.0 0.0
0.00651735375877798 -0.3275486082761505
0.008037264480208353 -0.6448798091319158
0.008864002728136575 -0.9609599163159652
0.009991003088555139 -1.2766033987949394
0.011967455729345667 -1.5912778721250609
0.015622276517345386 -1.9042634045977918
0.02199533694311894 -2.214650818846645
0.03231523148804018 -2.5212910658765444
0.04791434827009166 -2.8226605329448105
0.07010325258942961 -3.116689422495231
0.10008282527160643 -3.4006900350774605
0.13890519843643953 -3.6714246547519
0.1874609246942144 -3.925255544647393
0.2464645994540589 -4.158245811273069
0.3163797615392189 -4.366252030228071
0.3972964676084422 -4.545051755902638
0.48879635045463404 -4.690539362664462
0.5898485730125035 -4.799011506819849
0.6987803725030428 -4.867427383357311
0.812959345730363 -4.8937885603349915
0.9271383189576761 -4.867427383357156
1.0360701184481917 -4.799011506819535
1.1371223410060218 -4.690539362664007
1.2286222238521636 -4.54505175590207
1.3095389299213305 -4.366252030227419
1.3794540920064327 -4.158245811272355
1.4384577667662204 -3.925255544646638
1.4870134930239394 -3.6714246547511267
1.5258358661887188 -3.4006900350766927
1.5558154388708478 -3.1166894224944914
1.5780043431901465 -2.822660532944115
1.5936034599721673 -2.5212910658759027
1.6039233545170666 -2.2146508188460663
1.6102964149428247 -1.9042634045972824
1.6139512357308146 -1.5912778721246303
1.615927688371601 -1.2766033987945877
1.617054688732018 -0.9609599163156967
1.617881426979946 -0.6448798091317293
1.6194013377013747 -0.3275486082760487
1.6259186914601491 0.0
0.08169863766695283 -0.002664999106661453
0.08633062656689892 -0.32788556640500777
0.08710842319952256 -0.6449455928793821
0.08783399512682029 -0.9610565886461592
0.08880968791346965 -1.276783039449373
0.09047422749465305 -1.5917042762571254
0.09360771292277022 -1.9051699502963289
0.09919145857480076 -2.216317131850476
0.10837586438885342 -2.5240294259182354
0.12237371855424405 -2.826787744044785
0.1423533558195898 -3.122502275998619
0.16937264682291742 -3.4084533303697913
0.20436534517202476 -3.681368623923963
0.24813893286348973 -3.9375733176929026
0.3013440329545823 -4.1730835512996896
0.3644139970169177 -4.383685313730024
0.4374591910856973 -4.565053735808458
0.5201466954835374 -4.712950446971404
0.6115869690563118 -4.823514600944216
0.7101484092274769 -4.893514469755016
0.8129593457303438 -4.920535848526805
0.915770282233204 -4.893514469754857
1.0143317224043475 -4.823514600943893
1.105771995977087 -4.712950446970938
1.1884595003748837 -4.565053735807877
1.261504694443613 -4.38368531372936
1.3245746585058962 -4.173083551298963
1.3777797585969378 -3.937573317692135
1.4215533462883518 -3.6813686239231767
1.4565460446374117 -3.408453330369012
1.483565335640696 -3.122502275997869
1.503544972906006 -2.8267877440440814
1.517542827071369 -2.5240294259175875
1.5267272328854016 -2.2163171318498933
1.532310978537418 -1.905169950295817
1.535444463965527 -1.5917042762566935
1.5371090035467068 -1.2767830394490212
1.5380846963333552 -0.9610565886458906
1.5388102682606528 -0.6449455928791954
1.539588064893276 -0.3278855664049056
1.5442200537932163 -0.002664999106658858
0.16232449317035103 -0.004800179903807596
0.16575902558268388 -0.3280566699516027
0.16619896226430234 -0.6449755861276515
0.16678775285130515 -0.9611407230762488
0.16762451070608503 -1.276923193251758
0.16900842320558737 -1.5920420009346903
0.171635201414438 -1.9059246237389142
0.17643232757395033 -2.217753382102931
0.18445939762323912 -2.526435593078478
0.19681315194003615 -2.8304485688339893
0.21452727363515667 -3.127679558433844
0.23852729331598704 -3.415379396881381
0.2696299444468913 -3.6902479185803165
0.3085494300125277 -3.948580691303763
0.3558773224492849 -4.186353226968066
0.4120220071887001 -4.399291924793197
0.47712817682418424 -4.58298531630193
0.5509621800202046 -4.733076863108291
0.6327495101985565 -4.845548668703339
0.7209154192254476 -4.916929373395456
0.8129593457303252 -4.94453581130176
0.9050032722351963 -4.916929373395294
0.9931691812620685 -4.845548668703009
1.0749565114403896 -4.733076863107816
1.1487905146363715 -4.582985316301337
1.2138966842718117 -4.399291924792522
1.27004136901118 -4.186353226967328
1.3173692614478918 -3.9485806913029826
1.3562887470134832 -3.6902479185795185
1.387391398144345 -3.4153793968805912
1.411391417825137 -3.1276795584330848
1.429105539520226 -2.830448568833278
1.4414592938369981 -2.5264355930778244
1.4494863638862685 -2.2177533821023445
1.4542834900457684 -1.9059246237384
1.456910268254612 -1.5920420009342575
1.4582941807541119 -1.2769231932514054
1.459130938608891 -0.9611407230759803
1.4597197291958939 -0.6449755861274648
1.4601596658775124 -0.3280566699515001
1.4635941982898393 -0.004800179903802115
0.24237937481855706 -0.00652584151016345
0.2450001236027317 -0.3281729779207493
0.24526630722369952 -0.6449914375041252
0.24572552011062157 -0.9612070021916258
0.24643116150314784 -1.2770336333432408
0.2475672177448596 -1.5923007720612146
0.24971635446051405 -1.9065324095351424
0.25373682543788884 -2.218960057025323
0.26059862307551435 -2.528504414684265
0.2712838596061037 -2.833634029483809
0.2866971180271539 -3.132210203870999
0.30763605093684016 -3.42145682339338
0.33480443328558884 -3.6980502195555642
0.3688224717962357 -3.95826271971035
0.41021431105577677 -4.19803829058098
0.45937045315153935 -4.413055697283089
0.5164739847893288 -4.598832788213559
0.5813867272165943 -4.750907453535254
0.6534644456700139 -4.865102277267306
0.7313575489046046 -4.937736648748005
0.8129593457303069 -4.965933280564513
0.8945611425560035 -4.93773664874784
0.9724542457905777 -4.8651022772669705
1.04453196424397 -4.7509074535347695
1.1094447066712014 -4.598832788212957
1.1665482383089532 -4.413055697282403
1.2157043804046745 -4.198038290580231
1.2570962196641755 -3.958262719709559
1.2911142581747832 -3.698050219554757
1.3182826405234946 -3.4214568233925813
1.3392215734331478 -3.132210203870232
1.35463483185417 -2.8336340294830915
1.3653200683847375 -2.528504414683607
1.3721818660223468 -2.218960057024733
1.3762023369997107 -1.906532409534626
1.3783514737153597 -1.5923007720607811
1.3794875299570695 -1.2770336333428882
1.3801931713495954 -0.9612070021913574
1.3806523842365175 -0.6449914375039387
1.3809185678574853 -0.3281729779206463
1.3835393166416545 -0.006525841510155299
0.32211042788599564 -0.007927022774835025
0.32411674642623683 -0.3282623468740866
0.3242894874092953 -0.6450003865975826
0.32464079340123475 -0.9612577549158042
0.3252255629849354 -1.2771204607089939
0.32614340696313066 -1.5924942117108176
0.32785946843117286 -1.907002667377888
0.33112241596254255 -2.2199403371162494
0.33682662933523544 -2.5302353437418055
0.3458365851370736 -2.836340086969187
0.3589327814029877 -3.136088394661946
0.3767889830906237 -3.4266784228827074
0.3999955403224456 -3.7047675782056517
0.42908123377609525 -3.966610659424279
0.4645066379232403 -4.2081279432652225
0.5066312665106654 -4.424963626717686
0.5556696718168115 -4.612580535263131
0.6115837666834162 -4.766424923562773
0.673913341137848 -4.882179078783081
0.7416056627946801 -4.955985248989654
0.8129593457302893 -4.9848051650134915
0.8843130286658932 -4.955985248989486
0.9520053503227104 -4.882179078782742
1.0143349247771185 -4.766424923562282
1.0702490196436938 -4.612580535262522
1.1192874249498073 -4.424963626716991
1.1614120535371968 -4.208127943264464
1.196837457684308 -3.9666106594234796
1.2259231511379236 -3.7047675782048355
1.2491297083697137 -3.4266784228819005
1.2669859100573215 -3.1360883946611717
1.2800821063232117 -2.836340086968464
1.289092062125031 -2.5302353437411425
1.2947962754977098 -2.219940337115656
1.2980592230290708 -1.9070026673773703
1.2997752844971087 -1.5924942117103837
1.3006931284753025 -1.277120460708641
1.301277898059003 -0.9612577549155359
1.3016292040509425 -0.6450003865973961
1.301801945034001 -0.3282623468739833
1.3038082635742374 -0.007927022774824525
0.40162874264457704 -0.009058193002225498
0.40314728339099914 -0.3283338586160138
0.4032662854200161 -0.6450071010444377
0.40352967493804887 -0.9612954007384937
0.40400123828484635 -1.2771887921795488
0.4047309235694284 -1.5926355763329194
0.40605880307760434 -1.907350369716909
0.40861276147573544 -2.220701486908967
0.4131764053249648 -2.531631779846975
0.42052159074189993 -2.838567708197975
0.431303338010664 -3.1393131645046823
0.44607377353742633 -3.4310421774679836
0.4653123658325762 -3.7103969139956567
0.48945566613825164 -3.973620684332234
0.5188989231506206 -4.216617788245919
0.5539730309929853 -4.435007422280187
0.5949025249356941 -4.624213184850539
0.6417445040261036 -4.779612741890752
0.6942652297114593 -4.896777577397068
0.751763125400021 -4.97170081026666
0.8129593457302714 -5.001197179006026
0.8741555660605175 -4.971700810266491
0.9316534617490659 -4.896777577396724
0.9841741874344019 -4.779612741890255
1.0310161665247861 -4.624213184849922
1.0719456604674673 -4.435007422279485
1.1070197683098024 -4.216617788245154
1.1364630253221428 -3.9736206843314266
1.16060632562779 -3.7103969139948334
1.1798449179229136 -3.4310421774671704
1.1946153534496526 -3.1393131645039025
1.205397100718397 -2.838567708197247
1.2127422861353165 -2.5316317798463084
1.2173059299845341 -2.2207014869083714
1.2198598883826584 -1.90735036971639
1.221187767890831 -1.5926355763324846
1.2219174531754122 -1.277188792179196
1.2223890165222095 -0.9612954007382254
1.2226524060402424 -0.6450071010442512
1.2227714080692593 -0.3283338586159102
1.2242899488156775 -0.009058193002212948
0.48099140427595166 -0.009960940741022422
0.4821175643888234 -0.3283912747805048
0.48220249204442994 -0.6450139039082216
0.4823919201328277 -0.9613216099736683
0.482754694738075 -1.2772420645265692
0.48332071796153386 -1.5927371457245079
0.4843061716096772 -1.9075940722383227
0.48620954639138625 -2.221259558858508
0.4896834815616707 -2.5327018210798906
0.4953895938678481 -2.8403225637605867
0.5038781616054414 -3.141888833442891
0.5155797578002239 -3.434551321038285
0.5308636566688095 -3.7149407030388852
0.5500751380353812 -3.9792945631885503
0.5735444296501356 -4.223508247389445
0.6015650738886995 -4.443184549482163
0.6343641468408986 -4.633720691793716
0.6720774108267582 -4.790453782022449
0.7147001638133731 -4.90888445975658
0.7619306616599522 -4.984886248278928
0.8129593457302532 -5.015129741707328
0.8639880298005512 -4.984886248278755
0.9112185276471191 -4.908884459756232
0.9538412806337176 -4.790453782021948
0.9915545446195563 -4.633720691793093
1.0243536175717332 -4.443184549481455
1.0523742618102732 -4.223508247388672
1.0758435534250042 -3.979294563187737
1.0950550347915544 -3.7149407030380552
1.1103389336601188 -3.4345513210374667
1.122040529854883 -3.1418888334421062
1.1305290975924602 -2.840322563759855
1.1362352098986255 -2.532701821079221
1.139709145068901 -2.22125955885791
1.1416125198506049 -1.9075940722378029
1.1425979734987457 -1.5927371457240729
1.1431639967222043 -1.2772420645262164
1.1435267713274513 -0.9613216099734
1.1437161994158491 -0.645013903908035
1.1438011270714554 -0.32839127478040103
1.1449272871843246 -0.009960940741008156
0.5602357745026574 -0.010669024194933466
0.5610466921863917 -0.32843738481609874
0.5611065149208863 -0.6450212696786881
0.561229737766462 -0.9613376222693367
0.5614855558709447 -1.2772816019581967
0.5619023299540725 -1.5928090669479555
0.5625956186989887 -1.90775343379063
0.563911873185494 -2.2216368134776037
0.5663679172853924 -2.533462849136715
0.5704935527106152 -2.841616106409066
0.5767284717724691 -3.143824978134747
0.5853959324484732 -3.4372147515532756
0.5967605383499491 -3.7184075582886664
0.6110731566326888 -3.9836399688938164
0.6285935139893362 -4.228805689894466
0.6495806523099613 -4.449498816171634
0.6742571893940906 -4.641100130395723
0.7028028988706245 -4.798932211289073
0.7354154350038052 -4.918473326578697
0.7722208482800987 -4.995519785684786
0.8129593457302348 -5.02659811185181
0.8536978431803688 -4.995519785684611
0.8905032564566534 -4.918473326578346
0.9231157925898212 -4.798932211288567
0.9516615020663391 -4.641100130395096
0.976338039150451 -4.4494988161709195
0.997325177471058 -4.228805689893689
1.014845534827688 -3.983639968892998
1.0291581531104124 -3.7184075582878324
1.0405227590118729 -3.437214751552453
1.0491902196878626 -3.1438249781339587
1.0554251387497051 -2.841616106408331
1.0595507741749188 -2.533462849136043
1.062006818274811 -2.2216368134770046
1.0633230727613125 -1.9077534337901096
1.0640163615062275 -1.5928090669475203
1.064433135589355 -1.2772816019578441
1.0646889536938378 -0.9613376222690684
1.0648121765394134 -0.6450212696785016
1.064871999273908 -0.3284373848159948
1.06568291695764 -0.010669024194917847
0.6393853763008231 -0.011213751351813756
0.6399519687055852 -0.32847476574873036
0.6399860697935763 -0.6450283524713971
0.6400467709594406 -0.9613443652242708
0.6401972524162403 -1.2773070850738293
0.6404684279311924 -1.5928578505917403
0.6409103771563438 -1.9078497940583963
0.6417162720589173 -2.2218615338525685
0.6432412409227162 -2.5339418439159176
0.6458732371237597 -2.8424697432584565
0.6499256218424627 -3.1451382996017974
0.6556174843298915 -3.439048107484785
0.6631165963916313 -3.7208130739599237
0.6725848099135546 -3.9866718735632114
0.6842054833429192 -4.23252272589683
0.6981927504252641 -4.45396078047893
0.7147748769852957 -4.646359114049099
0.7341650092979716 -4.805038634293401
0.7566540405953103 -4.92550610761661
0.7827766297271163 -5.003551110960559
0.8129593457302158 -5.035569033244728
0.843142061733314 -5.003551110960383
0.8692646508651144 -4.925506107616256
0.8917536821624434 -4.805038634292892
0.911143814475108 -4.646359114048469
0.9277259410351273 -4.453960780478212
0.9417132081174607 -4.2325227258960485
0.953333881546814 -3.9866718735623903
0.9628020950687284 -3.7208130739590866
0.9703012071304578 -3.439048107483959
0.9759930696178772 -3.145138299601007
0.9800454543365732 -2.842469743257719
0.9826774505376111 -2.5339418439152444
0.984202419401406 -2.221861533851969
0.9850083143039774 -1.9078497940578754
0.985450263529128 -1.5928578505913054
0.9857214390440802 -1.2773070850734762
0.9858719205008799 -0.9613443652240025
0.9859326216667441 -0.6450283524712106
0.985966722754735 -0.3284747657486265
0.9865333151594957 -0.011213751351797106
0.7184579743555074 -0.011625778127151288
0.7188449286325581 -0.32850655564078624
0.718848542555353 -0.6450332516855153
0.7188470677749097 -0.9613425529337154
0.7188949738027205 -1.277317977885766
0.7190170752349053 -1.5928856228411186
0.7192321751538603 -1.907901236458993
0.7196068652252054 -2.221969510936155
0.7203072041563559 -2.5341787379610143
0.7215577364584087 -2.8429188475284675
0.7235290131785344 -3.1458586164202056
0.7263325310599874 -3.4400778215572125
0.7300410221597868 -3.7221825225242875
0.7347358290080236 -3.9884155503835204
0.7405251610963239 -4.234682438447263
0.7475638303285729 -4.456588596222097
0.7560751510320237 -4.649514520588259
0.7663434095185501 -4.808784282306349
0.7786998805139793 -4.9299481510887455
0.7938159699691145 -5.008894921635175
0.8129593457301961 -5.041969128572947
0.8321027214912775 -5.008894921634999
0.8472188109464099 -4.929948151088391
0.8595752819418333 -4.808784282305838
0.8698435404283535 -4.649514520587625
0.8783548611317983 -4.456588596221376
0.8853935303640419 -4.234682438446479
0.8911828624523378 -3.988415550382698
0.8958776693005708 -3.722182522523449
0.8995861604003659 -3.4400778215563848
0.9023896782818149 -3.145858616419414
0.9043609550019374 -2.842918847527729
0.905611487303988 -2.53417873796034
0.9063118262351364 -2.2219695109355553
0.9066865163064808 -1.9079012364584718
0.9069016162254356 -1.5928856228406831
0.9070237176576206 -1.2773179778854133
0.9070716236854314 -0.961342552933447
0.9070701489049879 -0.6450332516853287
0.9070737628277826 -0.32850655564068243
0.9074607171048327 -0.011625778127133871
0.7974724403039197 -0.01193199123696343
0.7977314714142434 -0.328536304459472
0.7976993461670163 -0.6450337683258414
0.797635507753383 -0.9613325820313339
0.7975832637222755 -1.2773142460358688
0.7975560862165642 -1.5928918006125445
0.7975449208765223 -1.907917131088302
0.7975402460073893 -2.221999778087339
0.7975381767195696 -2.5342383492769263
0.7975376885325312 -2.8430316634879307
0.7975375922932515 -3.1460471598770585
0.7975345046715332 -3.440359369014362
0.7975214110611178 -3.722569252650938
0.7974988889646648 -3.9889224537139056
0.7974964980185372 -4.235333488292282
0.7976110192718265 -4.45742449059246
0.7980535089413466 -4.650601326812649
0.7991945924950381 -4.810212900338867
0.8015232545068427 -4.9318261265833625
0.8055908232677294 -5.01146114326112
0.8129593457301758 -5.045669416918286
0.8203278681926236 -5.011461143260943
0.8243954369535097 -4.931826126583007
0.8267240989653121 -4.810212900338355
0.8278651825190034 -4.650601326812015
0.8283076721885242 -4.457424490591739
0.8284221934418148 -4.235333488291499
0.828419802495689 -3.988922453713083
0.8283972803992375 -3.722569252650099
0.8283841867888242 -3.4403593690135343
0.8283810991671078 -3.1460471598762663
0.828381002927829 -2.8430316634871926
0.8283805147407913 -2.5342383492762526
0.8283784454529718 -2.221999778086739
0.8283737705838389 -1.9079171310877812
0.8283626052437973 -1.5928918006121093
0.8283354277380861 -1.2773142460355165
0.8282831837069787 -0.9613325820310655
0.8282193452933454 -0.6450337683256546
0.8281872200461181 -0.32853630445936827
0.8284462511564412 -0.011931991236945457
0.8764406665049758 -0.012159152246947306
0.8766105454971203 -0.3285660183690031
0.8765433071940815 -0.6450285999553632
0.8764175843284295 -0.9613146275775197
0.876267815181734 -1.2772961960312261
0.8760934814157827 -1.592876070463152
0.8758563493681815 -1.9078986624612988
0.8754718945431322 -2.2219684602706007
0.8747680470698069 -2.5341783374041205
0.87351746145591 -2.8429187856796228
0.8715459612227736 -3.145858077614574
0.8687344887587255 -3.4400740142608037
0.8649993870310749 -3.7221734914239666
0.8602622397027024 -3.9884065694153255
0.8544751530143626 -4.2346999874385025
0.8476739702175742 -4.456700567213898
0.8400383631201063 -4.6498518207497455
0.8319490355808403 -4.809549113042647
0.8239595563999407 -4.931360425171777
0.8168727532081945 -5.011364335865294
0.8129593457301549 -5.046745926756426
0.8090459382521152 -5.0113643358651165
0.80195913506037 -4.9313604251714205
0.7939696558794745 -4.809549113042135
0.7858803283402163 -4.649851820749113
0.7782447212427561 -4.456700567213178
0.7714435384459754 -4.234699987437721
0.765656451757643 -3.988406569414504
0.7609193044292781 -3.7221734914231295
0.7571842027016357 -3.440074014259977
0.754372730237595 -3.145858077613783
0.7524012300044641 -2.8429187856788847
0.751150644390571 -2.534178337403447
0.7504467969172478 -2.2219684602700007
0.7500623420921997 -1.907898662460778
0.7498252100445993 -1.592876070462717
0.7496508762786482 -1.2772961960308735
0.7495011071319527 -0.9613146275772515
0.7493753842663009 -0.6450285999551766
0.7493081459632622 -0.3285660183688994
0.7494780249554063 -0.012159152246929003
0.9553724632586578 -0.012330423407028166
0.9554828212455974 -0.3285947679641181
0.955384353413252 -0.6450178861782323
0.9551990671693645 -0.9612888008129467
0.9549551513466272 -1.2772644207503052
0.9546372608035293 -1.592838789410913
0.9541728534559739 -1.9078441652309064
0.9533586137475992 -2.221859135585668
0.9518327007122723 -2.533941239458882
0.9492019111523202 -2.8424697414343454
0.9451483968512414 -3.1451367343026484
0.9394480471982327 -3.439040140821787
0.9319263329525125 -3.720795316668175
0.922425870613561 -3.986655497456187
0.9108208779364508 -4.232561474500777
0.8970779626460057 -4.4541902488753555
0.881339907983958 -4.647032953847636
0.8639800152558256 -4.806540210958096
0.8456708918584281 -4.928342443427344
0.8277487043893896 -5.0087283354368175
0.8129593457301348 -5.045380816621044
0.7981699870708808 -5.00872833543664
0.7802477996018455 -4.92834244342699
0.7619386762044567 -4.806540210957587
0.744578783476337 -4.647032953847006
0.7288407288143038 -4.454190248874639