# vtk DataFile Version 3.0
Some data
ASCII
DATASET UNSTRUCTURED_GRID
POINTS 861 float
0.0 0.0 0.0
0.4 0.0 0.0
0.8 0.0 0.0
1.2000000000000002 0.0 0.0
1.6 0.0 0.0
2.0 0.0 0.0
2.4000000000000004 0.0 0.0
2.8000000000000003 0.0 0.0
3.2 0.0 0.0
3.6 0.0 0.0
4.0 0.0 0.0
4.4 0.0 0.0
4.800000000000001 0.0 0.0
5.2 0.0 0.0
5.6000000000000005 0.0 0.0
6.0 0.0 0.0
6.4 0.0 0.0
6.800000000000001 0.0 0.0
7.2 0.0 0.0
7.6000000000000005 0.0 0.0
8.0 0.0 0.0
8.4 0.0 0.0
8.8 0.0 0.0
9.200000000000001 0.0 0.0
9.600000000000001 0.0 0.0
10.0 0.0 0.0
10.4 0.0 0.0
10.8 0.0 0.0
11.200000000000001 0.0 0.0
11.600000000000001 0.0 0.0
12.0 0.0 0.0
12.4 0.0 0.0
12.8 0.0 0.0
13.200000000000001 0.0 0.0
13.600000000000001 0.0 0.0
14.0 0.0 0.0
14.4 0.0 0.0
14.8 0.0 0.0
15.200000000000001 0.0 0.0
15.600000000000001 0.0 0.0
16.0 0.0 0.0
0.0 0.1 0.0
0.4 0.1 0.0
0.8 0.1 0.0
1.2000000000000002 0.1 0.0
1.6 0.1 0.0
2.0 0.1 0.0
2.4000000000000004 0.1 0.0
2.8000000000000003 0.1 0.0
3.2 0.1 0.0
3.6 0.1 0.0
4.0 0.1 0.0
4.4 0.1 0.0
4.800000000000001 0.1 0.0
5.2 0.1 0.0
5.6000000000000005 0.1 0.0
6.0 0.1 0.0
6.4 0.1 0.0
6.800000000000001 0.1 0.0
7.2 0.1 0.0
7.6000000000000005 0.1 0.0
8.0 0.1 0.0
8.4 0.1 0.0
8.8 0.1 0.0
9.200000000000001 0.1 0.0
9.600000000000001 0.1 0.0
10.0 0.1 0.0
10.4 0.1 0.0
10.8 0.1 0.0
11.200000000000001 0.1 0.0
11.600000000000001 0.1 0.0
12.0 0.1 0.0
12.4 0.1 0.0
12.8 0.1 0.0
13.200000000000001 0.1 0.0
13.600000000000001 0.1 0.0
14.0 0.1 0.0
14.4 0.1 0.0
14.8 0.1 0.0
15.200000000000001 0.1 0.0
15.600000000000001 0.1 0.0
16.0 0.1 0.0
0.0 0.2 0.0
0.4 0.2 0.0
0.8 0.2 0.0
1.2000000000000002 0.2 0.0
1.6 0.2 0.0
2.0 0.2 0.0
2.4000000000000004 0.2 0.0
2.8000000000000003 0.2 0.0
3.2 0.2 0.0
3.6 0.2 0.0
4.0 0.2 0.0
4.4 0.2 0.0
4.800000000000001 0.2 0.0
5.2 0.2 0.0
5.6000000000000005 0.2 0.0
6.0 0.2 0.0
6.4 0.2 0.0
6.800000000000001 0.2 0.0
7.2 0.2 0.0
7.6000000000000005 0.2 0.0
8.0 0.2 0.0
8.4 0.2 0.0
8.8 0.2 0.0
9.200000000000001 0.2 0.0
9.600000000000001 0.2 0.0
10.0 0.2 0.0
10.4 0.2 0.0
10.8 0.2 0.0
11.200000000000001 0.2 0.0
11.600000000000001 0.2 0.0
12.0 0.2 0.0
12.4 0.2 0.0
12.8 0.2 0.0
13.200000000000001 0.2 0.0
13.600000000000001 0.2 0.0
14.0 0.2 0.0
14.4 0.2 0.0
14.8 0.2 0.0
15.200000000000001 0.2 0.0
15.600000000000001 0.2 0.0
16.0 0.2 0.0
0.0 0.30000000000000004 0.0
0.4 0.30000000000000004 0.0
0.8 0.30000000000000004 0.0
1.2000000000000002 0.30000000000000004 0.0
1.6 0.30000000000000004 0.0
2.0 0.30000000000000004 0.0
2.4000000000000004 0.30000000000000004 0.0
2.8000000000000003 0.30000000000000004 0.0
3.2 0.30000000000000004 0.0
3.6 0.30000000000000004 0.0
4.0 0.30000000000000004 0.0
4.4 0.30000000000000004 0.0
4.800000000000001 0.30000000000000004 0.0
5.2 0.30000000000000004 0.0
5.6000000000000005 0.30000000000000004 0.0
6.0 0.30000000000000004 0.0
6.4 0.30000000000000004 0.0
6.800000000000001 0.30000000000000004 0.0
7.2 0.30000000000000004 0.0
7.6000000000000005 0.30000000000000004 0.0
8.0 0.30000000000000004 0.0
8.4 0.30000000000000004 0.0
8.8 0.30000000000000004 0.0
9.200000000000001 0.30000000000000004 0.0
9.600000000000001 0.30000000000000004 0.0
10.0 0.30000000000000004 0.0
10.4 0.30000000000000004 0.0
10.8 0.30000000000000004 0.0
11.200000000000001 0.30000000000000004 0.0
11.600000000000001 0.30000000000000004 0.0
12.0 0.30000000000000004 0.0
12.4 0.30000000000000004 0.0
12.8 0.30000000000000004 0.0
13.200000000000001 0.30000000000000004 0.0
13.600000000000001 0.30000000000000004 0.0
14.0 0.30000000000000004 0.0
14.4 0.30000000000000004 0.0
14.8 0.30000000000000004 0.0
15.200000000000001 0.30000000000000004 0.0
15.600000000000001 0.30000000000000004 0.0
16.0 0.30000000000000004 0.0
0.0 0.4 0.0
0.4 0.4 0.0
0.8 0.4 0.0
1.2000000000000002 0.4 0.0
1.6 0.4 0.0
2.0 0.4 0.0
2.4000000000000004 0.4 0.0
2.8000000000000003 0.4 0.0
3.2 0.4 0.0
3.6 0.4 0.0
4.0 0.4 0.0
4.4 0.4 0.0
4.800000000000001 0.4 0.0
5.2 0.4 0.0
5.6000000000000005 0.4 0.0
6.0 0.4 0.0
6.4 0.4 0.0
6.800000000000001 0.4 0.0
7.2 0.4 0.0
7.6000000000000005 0.4 0.0
8.0 0.4 0.0
8.4 0.4 0.0
8.8 0.4 0.0
9.200000000000001 0.4 0.0
9.600000000000001 0.4 0.0
10.0 0.4 0.0
10.4 0.4 0.0
10.8 0.4 0.0
11.200000000000001 0.4 0.0
11.600000000000001 0.4 0.0
12.0 0.4 0.0
12.4 0.4 0.0
12.8 0.4 0.0
13.200000000000001 0.4 0.0
13.600000000000001 0.4 0.0
14.0 0.4 0.0
14.4 0.4 0.0
14.8 0.4 0.0
15.200000000000001 0.4 0.0
15.600000000000001 0.4 0.0
16.0 0.4 0.0
0.0 0.5 0.0
0.4 0.5 0.0
0.8 0.5 0.0
1.2000000000000002 0.5 0.0
1.6 0.5 0.0
2.0 0.5 0.0
2.4000000000000004 0.5 0.0
2.8000000000000003 0.5 0.0
3.2 0.5 0.0
3.6 0.5 0.0
4.0 0.5 0.0
4.4 0.5 0.0
4.800000000000001 0.5 0.0
5.2 0.5 0.0
5.6000000000000005 0.5 0.0
6.0 0.5 0.0
6.4 0.5 0.0
6.800000000000001 0.5 0.0
7.2 0.5 0.0
7.6000000000000005 0.5 0.0
8.0 0.5 0.0
8.4 0.5 0.0
8.8 0.5 0.0
9.200000000000001 0.5 0.0
9.600000000000001 0.5 0.0
10.0 0.5 0.0
10.4 0.5 0.0
10.8 0.5 0.0
11.200000000000001 0.5 0.0
11.600000000000001 0.5 0.0
12.0 0.5 0.0
12.4 0.5 0.0
12.8 0.5 0.0
13.200000000000001 0.5 0.0
13.600000000000001 0.5 0.0
14.0 0.5 0.0
14.4 0.5 0.0
14.8 0.5 0.0
15.200000000000001 0.5 0.0
15.600000000000001 0.5 0.0
16.0 0.5 0.0
0.0 0.6000000000000001 0.0
0.4 0.6000000000000001 0.0
0.8 0.6000000000000001 0.0
1.2000000000000002 0.6000000000000001 0.0
1.6 0.6000000000000001 0.0
2.0 0.6000000000000001 0.0
2.4000000000000004 0.6000000000000001 0.0
2.8000000000000003 0.6000000000000001 0.0
3.2 0.6000000000000001 0.0
3.6 0.6000000000000001 0.0
4.0 0.6000000000000001 0.0
4.4 0.6000000000000001 0.0
4.800000000000001 0.6000000000000001 0.0
5.2 0.6000000000000001 0.0
5.6000000000000005 0.6000000000000001 0.0
6.0 0.6000000000000001 0.0
6.4 0.6000000000000001 0.0
6.800000000000001 0.6000000000000001 0.0
7.2 0.6000000000000001 0.0
7.6000000000000005 0.6000000000000001 0.0
8.0 0.6000000000000001 0.0
8.4 0.6000000000000001 0.0
8.8 0.6000000000000001 0.0
9.200000000000001 0.6000000000000001 0.0
9.600000000000001 0.6000000000000001 0.0
10.0 0.6000000000000001 0.0
10.4 0.6000000000000001 0.0
10.8 0.6000000000000001 0.0
11.200000000000001 0.6000000000000001 0.0
11.600000000000001 0.6000000000000001 0.0
12.0 0.6000000000000001 0.0
12.4 0.6000000000000001 0.0
12.8 0.6000000000000001 0.0
13.200000000000001 0.6000000000000001 0.0
13.600000000000001 0.6000000000000001 0.0
14.0 0.6000000000000001 0.0
14.4 0.6000000000000001 0.0
14.8 0.6000000000000001 0.0
15.200000000000001 0.6000000000000001 0.0
15.600000000000001 0.6000000000000001 0.0
16.0 0.6000000000000001 0.0
0.0 0.7000000000000001 0.0
0.4 0.7000000000000001 0.0
0.8 0.7000000000000001 0.0
1.2000000000000002 0.7000000000000001 0.0
1.6 0.7000000000000001 0.0
2.0 0.7000000000000001 0.0
2.4000000000000004 0.7000000000000001 0.0
2.8000000000000003 0.7000000000000001 0.0
3.2 0.7000000000000001 0.0
3.6 0.7000000000000001 0.0
4.0 0.7000000000000001 0.0
4.4 0.7000000000000001 0.0
4.800000000000001 0.7000000000000001 0.0
5.2 0.7000000000000001 0.0
5.6000000000000005 0.7000000000000001 0.0
6.0 0.7000000000000001 0.0
6.4 0.7000000000000001 0.0
6.800000000000001 0.7000000000000001 0.0
7.2 0.7000000000000001 0.0
7.6000000000000005 0.7000000000000001 0.0
8.0 0.7000000000000001 0.0
8.4 0.7000000000000001 0.0
8.8 0.7000000000000001 0.0
9.200000000000001 0.7000000000000001 0.0
9.600000000000001 0.7000000000000001 0.0
10.0 0.7000000000000001 0.0
10.4 0.7000000000000001 0.0
10.8 0.7000000000000001 0.0
11.200000000000001 0.7000000000000001 0.0
11.600000000000001 0.7000000000000001 0.0
12.0 0.7000000000000001 0.0
12.4 0.7000000000000001 0.0
12.8 0.7000000000000001 0.0
13.200000000000001 0.7000000000000001 0.0
13.600000000000001 0.7000000000000001 0.0
14.0 0.7000000000000001 0.0
14.4 0.7000000000000001 0.0
14.8 0.7000000000000001 0.0
15.200000000000001 0.7000000000000001 0.0
15.600000000000001 0.7000000000000001 0.0
16.0 0.7000000000000001 0.0
0.0 0.8 0.0
0.4 0.8 0.0
0.8 0.8 0.0
1.2000000000000002 0.8 0.0
1.6 0.8 0.0
2.0 0.8 0.0
2.4000000000000004 0.8 0.0
2.8000000000000003 0.8 0.0
3.2 0.8 0.0
3.6 0.8 0.0
4.0 0.8 0.0
4.4 0.8 0.0
4.800000000000001 0.8 0.0
5.2 0.8 0.0
5.6000000000000005 0.8 0.0
6.0 0.8 0.0
6.4 0.8 0.0
6.800000000000001 0.8 0.0
7.2 0.8 0.0
7.6000000000000005 0.8 0.0
8.0 0.8 0.0
8.4 0.8 0.0
8.8 0.8 0.0
9.200000000000001 0.8 0.0
9.600000000000001 0.8 0.0
10.0 0.8 0.0
10.4 0.8 0.0
10.8 0.8 0.0
11.200000000000001 0.8 0.0
11.600000000000001 0.8 0.0
12.0 0.8 0.0
12.4 0.8 0.0
12.8 0.8 0.0
13.200000000000001 0.8 0.0
13.600000000000001 0.8 0.0
14.0 0.8 0.0
14.4 0.8 0.0
14.8 0.8 0.0
15.200000000000001 0.8 0.0
15.600000000000001 0.8 0.0
16.0 0.8 0.0
0.0 0.9 0.0
0.4 0.9 0.0
0.8 0.9 0.0
1.2000000000000002 0.9 0.0
1.6 0.9 0.0
2.0 0.9 0.0
2.4000000000000004 0.9 0.0
2.8000000000000003 0.9 0.0
3.2 0.9 0.0
3.6 0.9 0.0
4.0 0.9 0.0
4.4 0.9 0.0
4.800000000000001 0.9 0.0
5.2 0.9 0.0
5.6000000000000005 0.9 0.0
6.0 0.9 0.0
6.4 0.9 0.0
6.800000000000001 0.9 0.0
7.2 0.9 0.0
7.6000000000000005 0.9 0.0
8.0 0.9 0.0
8.4 0.9 0.0
8.8 0.9 0.0
9.200000000000001 0.9 0.0
9.600000000000001 0.9 0.0
10.0 0.9 0.0
10.4 0.9 0.0
10.8 0.9 0.0
11.200000000000001 0.9 0.0
11.600000000000001 0.9 0.0
12.0 0.9 0.0
12.4 0.9 0.0
12.8 0.9 0.0
13.200000000000001 0.9 0.0
13.600000000000001 0.9 0.0
14.0 0.9 0.0
14.4 0.9 0.0
14.8 0.9 0.0
15.200000000000001 0.9 0.0
15.600000000000001 0.9 0.0
16.0 0.9 0.0
0.0 1.0 0.0
0.4 1.0 0.0
0.8 1.0 0.0
1.2000000000000002 1.0 0.0
1.6 1.0 0.0
2.0 1.0 0.0
2.4000000000000004 1.0 0.0
2.8000000000000003 1.0 0.0
3.2 1.0 0.0
3.6 1.0 0.0
4.0 1.0 0.0
4.4 1.0 0.0
4.800000000000001 1.0 0.0
5.2 1.0 0.0
5.6000000000000005 1.0 0.0
6.0 1.0 0.0
6.4 1.0 0.0
6.800000000000001 1.0 0.0
7.2 1.0 0.0
7.6000000000000005 1.0 0.0
8.0 1.0 0.0
8.4 1.0 0.0
8.8 1.0 0.0
9.200000000000001 1.0 0.0
9.600000000000001 1.0 0.0
10.0 1.0 0.0
10.4 1.0 0.0
10.8 1.0 0.0
11.200000000000001 1.0 0.0
11.600000000000001 1.0 0.0
12.0 1.0 0.0
12.4 1.0 0.0
12.8 1.0 0.0
13.200000000000001 1.0 0.0
13.600000000000001 1.0 0.0
14.0 1.0 0.0
14.4 1.0 0.0
14.8 1.0 0.0
15.200000000000001 1.0 0.0
15.600000000000001 1.0 0.0
16.0 1.0 0.0
0.0 1.1 0.0
0.4 1.1 0.0
0.8 1.1 0.0
1.2000000000000002 1.1 0.0
1.6 1.1 0.0
[...]
POINT_DATA 861
SCALARS Disp float 2
LOOKUP_TABLE default
0.0 0.0
0.005826998456698734 -0.2524429773060873
0.007159799141667906 -0.4956482469475862
0.00794622508266095 -0.7377988306253471
0.008964007514372062 -0.9795818322014163
0.010615194661699679 -1.2205836212261896
0.013524523998081229 -1.4602534199479789
0.018455075699714957 -1.697897562770778
0.026305297507013686 -1.9326487359902038
0.03805481598863024 -2.1633773042583666
0.054681736158999746 -2.388559023028916
0.07710800648713263 -2.606195140089327
0.10617396001992396 -2.813839301482313
0.14262952578485388 -3.008712380452367
0.187131210994599 -3.187786344605211
0.24017466069545407 -3.3478504240204177
0.30197244898568665 -3.485595696027709
0.37230699493105207 -3.5977518861678504
0.45040465470816377 -3.6813109494753373
0.5348835952176848 -3.7337741489853116
0.6235471776224858 -3.7534424658807253
0.7122107600272817 -3.7337741489851934
0.7966897005367852 -3.681310949475098
0.8747873603138661 -3.5977518861675044
0.945121906259192 -3.485595696027276
1.0069196945493821 -3.3478504240199225
1.0599631442501942 -3.1877863446046693
1.1044648294598975 -3.008712380451793
1.140920395224786 -2.813839301481725
1.169986348757536 -2.606195140088743
1.1924126190856323 -2.388559023028352
1.2090395392559714 -2.163377304257837
1.220789057737565 -1.9326487359897138
1.2286392795448464 -1.697897562770336
1.2335698312464682 -1.4602534199475892
1.2364791605828427 -1.2205836212258598
1.238130347730167 -0.9795818322011461
1.2391481301618774 -0.7377988306251402
1.2399345561028703 -0.4956482469474413
1.241267356787838 -0.25244297730600723
1.2470943552445333 0.0
0.06296845112186733 -0.002423268882988026
0.06704700881892955 -0.2527097300625665
0.06774186331907409 -0.49571038499215114
0.06843884759305195 -0.7378885929623973
0.0693310992491872 -0.9797280125239972
0.07073410818300337 -1.2209082743041606
0.07323517687921731 -1.4609284735579344
0.07755490703071437 -1.6991284868611867
0.08453717229230442 -1.9346651785726756
0.09507662412866501 -2.1664132604652275
0.11004604277548465 -2.3928377876822076
0.1302527933448871 -2.6119225046656847
0.15643741571464262 -2.821203041917612
0.18928177578575797 -3.0178816448261583
0.22938553628439817 -3.19890413710668
0.27721106575904103 -3.3610106280143133
0.3329737883203972 -3.5008095453661245
0.39651143127129573 -3.6149138406583505
0.4671630818979789 -3.700171260469647
0.5436188281351496 -3.7539134039180415
0.6235471776224714 -3.7741104347422194
0.703475527109788 -3.7539134039179207
0.7799312733469423 -3.7001712604694017
0.8505829239735985 -3.614913840657996
0.9141205669244628 -3.5008095453656813
0.9698832894857813 -3.361010628013809
1.0177088189603851 -3.198904137106128
1.0578125794589877 -3.0178816448255743
1.0906569395300656 -2.821203041917014
1.116841561899784 -2.611922504665092
1.1370483124691537 -2.3928377876816365
1.1520177311159456 -2.166413260464691
1.1625571829522854 -1.9346651785721811
1.1695394482138595 -1.6991284868607412
1.173859178365346 -1.4609284735575427
1.176360247061554 -1.2209082743038298
1.1777632559953675 -0.9797280125237268
1.1786555076515022 -0.7378885929621904
1.1793524919254799 -0.4957103849920062
1.1800473464256243 -0.252709730062486
1.184125904122681 -0.0024232688829855693
0.12495273156018422 -0.004348107603329846
0.12794583041845609 -0.2528421640258939
0.1283437422227909 -0.49574313605136533
0.12891225225485073 -0.7379676220477658
0.12968887849926228 -0.979844521646569
0.13086890436997933 -1.2211651277426154
0.132971577180777 -1.4614875071871025
0.13668335444643195 -1.7001843375918404
0.14278268133428715 -1.936431191233553
0.15208205755125132 -2.169100671732371
0.1653538562532429 -2.3966432556766395
0.18330079022966128 -2.6170251849014736
0.20656586596768184 -2.827768913369665
0.23575053846957011 -3.0260644335974387
0.2714019919397826 -3.208835244732788
0.3139501978164211 -3.372779937131737
0.3636236429870357 -3.5144367490311237
0.42033190688774097 -3.6303156820295563
0.4835176739834703 -3.7171265069803705
0.551938806957264 -3.771997311224464
0.6235471776224573 -3.7926709863736248
0.6951555482876458 -3.7719973112243403
0.7635766812614245 -3.7171265069801205
0.8267624483571299 -3.6303156820291953
0.8834707122578056 -3.514436749030672
0.933144157428387 -3.372779937131223
0.9756923633049905 -3.208835244732227
1.0113438167751692 -3.026064433596846
1.0405284892770241 -2.8277689133690584
1.0637935650150123 -2.6170251849008728
1.0817404989914012 -2.3966432556760613
1.0950122976933685 -2.1691006717318286
1.1043116739103136 -1.9364311912330543
1.1104110007981547 -1.700184337591392
1.1141227780638003 -1.4614875071867093
1.1162254508745928 -1.2211651277422841
1.117405476745308 -0.9798445216462983
1.1181821029897192 -0.7379676220475588
1.1187506130217788 -0.4957431360512204
1.119148524826114 -0.25284216402581305
1.1221416236843802 -0.004348107603324611
0.186417584013712 -0.005895538295073078
0.18868094700399346 -0.2529324628669293
0.1889235083873658 -0.49576119435913985
0.18936821864887485 -0.7380314933635045
0.19003235584406203 -0.9799394100278678
0.1910162529380834 -1.2213622487278326
0.19274369268615563 -1.4619345168933753
0.19585478943486015 -1.7010662097939886
0.20106616965862573 -1.9379435043117936
0.20910795242055055 -2.171433414797105
0.2206568549058268 -2.3999678875787294
0.2363151996435341 -2.621496121174817
0.25663275915374256 -2.833529714124691
0.2821293186484653 -3.0332511271446796
0.3132880683564009 -3.217568275460305
0.3505137042476774 -3.3831464932168673
0.3940518265826185 -3.526467008538934
0.44388276861469084 -3.643950234044872
0.49956039833682625 -3.732169577003284
0.5600265915427253 -3.788071162870013
0.6235471776224436 -3.809226107123837
0.6870677637021576 -3.7880711628698878
0.7475339569080431 -3.7321695770030296
0.8032115866301571 -3.6439502340445045
0.8530425286622039 -3.526467008538475
0.8965806509971161 -3.3831464932163455
0.933806286888362 -3.217568275459737
0.9649650365962678 -3.0332511271440783
0.9904615960909608 -2.8335297141240767
1.0107791556011416 -2.6214961211742085
1.0264375003388235 -2.399967887578145
1.0379864028240782 -2.171433414796558
1.046028185585986 -1.937943504311291
1.0512395658097393 -1.7010662097935378
1.0543506625584358 -1.4619345168929803
1.0560781023065038 -1.2213622487275007
1.057061999400524 -0.9799394100275971
1.0577261365957107 -0.7380314933632974
1.05817084685722 -0.495761194358995
1.0584134082405923 -0.2529324628668481
1.060676771230869 -0.005895538295065308
0.24758615610054088 -0.0071463220975227166
0.2493039371191317 -0.2530027224068324
0.2494621416885991 -0.4957715647825748
0.24980257604437733 -0.7380810278678008
0.2503578599468975 -0.9800167351098484
0.25116835615389105 -1.2215114911579552
0.25255828781419026 -1.462277546774444
0.255082700991613 -1.7017770198961413
0.2594122210959596 -1.9392022666805482
0.2661912520937634 -2.173408828681052
0.2760051813075938 -2.4028079831991276
0.28936064014446966 -2.625331014431103
0.3067137279409168 -2.838481133425347
0.3285036996777459 -3.0394370137877758
0.35515347314591905 -3.225096438031481
0.3870289776451882 -3.3921015977095834
0.42438932876541136 -3.5368897651634166
0.4672876581629053 -3.6558051120327337
0.5154223811348309 -3.7453015270544596
0.5679772415284517 -3.8021689947431434
0.6235471776224303 -3.8238318162831137
0.6791171137164047 -3.8021689947430155
0.7316719741100136 -3.7453015270542007
0.7798066970819201 -3.6558051120323602
0.8227050264793923 -3.536889765162952
0.8600653775995905 -3.3921015977090554
0.891940882098833 -3.2250964380309055
0.9185906555669804 -3.039437013787168
0.9403806273037845 -2.838481133424726
0.9577337151002078 -2.625331014430489
0.9710891739370622 -2.402807983198538
0.9809031031508738 -2.1734088286805
0.9876821341486631 -1.9392022666800421
0.9920116542529991 -1.7017770198956885
0.9945360674304154 -1.4622775467740479
0.9959259990907114 -1.2215114911576226
0.996736495297704 -0.9800167351095775
0.9972917792002239 -0.7380810278675939
0.9976322135560023 -0.4957715647824299
0.9977904181254696 -0.2530027224067509
0.9995081991440563 -0.0071463220975127376
0.308559083096692 -0.008151367670967379
0.30984864574737037 -0.2530605080275545
0.30995784433896634 -0.49577898067014037
0.3102123022445702 -0.7381177372648019
0.31066128511383756 -0.9800795903429398
0.3113191196356506 -1.2216233844887365
0.31240806934650356 -1.4625299636184548
0.3143870903566796 -1.7023227589944152
0.3178455360737119 -1.9402104582027293
0.3233690150193563 -2.175027940380525
0.3314490787407763 -2.4051631639612854
0.34249963753754753 -2.6285292710807866
0.3568866228059311 -2.8426222807345662
0.3749674954526464 -3.044620808622636
0.39710050554546983 -3.231418305263146
0.4236190724031515 -3.399641031547331
0.4547770840064666 -3.5456951245081276
0.49068960124643796 -3.665867874358518
0.5312301007362511 -3.756519319864033
0.5758680953113682 -3.814307878875634
0.6235471776224168 -3.836521313963246
0.6712262599334617 -3.814307878875504
0.7158642545085683 -3.7565193198637705
0.7564047539983653 -3.6658678743581397
0.7923172712383181 -3.5456951245076582
0.8234752828416121 -3.3996410315467966
0.8499938496992714 -3.2314183052625642
0.8721268597920735 -3.044620808622023
0.890207732438768 -2.8426222807339396
0.9045947177071317 -2.6285292710801675
0.915645276503885 -2.405163163960691
0.9237253402252896 -2.1750279403799695
0.9292488191709218 -1.9402104582022206
0.9327072648879455 -1.7023227589939605
0.9346862858981165 -1.4625299636180578
0.935775235608967 -1.2216233844884037
0.9364330701307796 -0.9800795903426689
0.9368820530000467 -0.7381177372645948
0.9371365109056506 -0.4957789806699957
0.9372457094972466 -0.25306050802747276
0.9385352721479215 -0.008151367670955546
0.36938918014433314 -0.00894961874572629
0.37033831869559486 -0.25310872665598066
0.3704157927226816 -0.49578583438848955
0.37059717451275026 -0.738143072447647
0.3709415112614636 -0.9801295943080324
0.3714610930996631 -1.2217067104761683
0.37228392087141693 -1.4627077150106431
0.37376591568074663 -1.7027179909286907
0.3763948155779295 -1.940974537648334
0.3806791757064284 -2.1762951919998077
0.3870397303522111 -2.407036911460368
0.39579702493629987 -2.6310938956853303
0.40722905124009967 -2.8459563030393955
0.42161295199326626 -3.048805617694144
0.4392421035504467 -3.2365359468635897
0.4604066991853137 -3.405765269400593
0.48535377302128385 -3.5528779150590912
0.5142451437183767 -3.6741261553384676
0.5471214124268408 -3.7658112641877364
0.5837765360788686 -3.82448769313383
0.6235471776224031 -3.8473089163278598
0.6633178191659346 -3.8244876931336975
0.6999729428179534 -3.765811264187471
0.7328492115264041 -3.6741261553380857
0.7617405822234816 -3.5528779150586174
0.7866876560594348 -3.405765269400054
0.8078522516942837 -3.236535946863003
0.825481403251447 -3.048805617693526
0.8398653040045972 -2.8459563030387645
0.8512973303083814 -2.631093895684707
0.8600546248924559 -2.40703691145977
0.8664151795382262 -2.1762951919992495
0.8706995396667154 -1.9409745376478231
0.8733284395638918 -1.7027179909282348
0.8748104343732177 -1.4627077150102459
0.8756332621449701 -1.2217067104758352
0.8761528439831691 -0.9801295943077616
0.8764971807318822 -0.73814307244744
0.876678562521951 -0.4957858343883449
0.8767560365490376 -0.2531087266558988
0.8777051751002968 -0.00894961874571291
0.4301117432023154 -0.009572380428827836
0.430790325121944 -0.2531496086186111
0.43084346579519234 -0.4957926316609287
0.43095903695539894 -0.7381583345905173
0.4312002592203154 -0.9801666783115022
0.4315868113604916 -1.2217682320916168
0.4321802798596065 -1.4628259097432872
0.43321466541710024 -1.702982405684309
0.4350730739567117 -1.9415097424097882
0.43816350128672626 -2.1772194989788547
0.44283065065157634 -2.4084365152973892
0.4493179570324724 -2.633031915087904
0.45782123498512267 -2.8484907624705555
0.4685363749879154 -3.051999166367879
0.4816869990011177 -3.2404565069832034
0.49751958049957457 -3.410479263939409
0.5162669847213177 -3.5584384135713907
0.5381151502190901 -3.6805700048498564
0.5632460615016667 -3.773156725078843
0.5917901738899862 -3.832689434672169
0.6235471776223888 -3.8561897353885946
0.6553041813547896 -3.832689434672036
0.683848293743102 -3.7731567250785747
0.7089792050256684 -3.680570004849472
0.7308273705234285 -3.5584384135709124
0.7495747747451584 -3.4104792639388664
0.7654073562436012 -3.2404565069826132
0.7785579802567913 -3.051999166367257
0.789273120259572 -2.8484907624699214
0.797776398212211 -2.633031915087277
0.8042637045930963 -2.408436515296789
0.8089308539579371 -2.1772194989782943
0.8120212812879449 -1.9415097424092755
0.8138796898275517 -1.7029824056838523
0.814914075385043 -1.4628259097428893
0.815507543884157 -1.2217682320912835
0.8158940960243327 -0.9801666783112313
0.8161353182892492 -0.7381583345903103
0.8162508894494557 -0.4957926316607839
0.8163040301227039 -0.2531496086185291
0.8169826120423309 -0.009572380428813193
0.4907483519378727 -0.010049089882848108
0.49122080444553456 -0.2531851367717225
0.49124775261125164 -0.495798554209151
0.4913010991649337 -0.7381645567027413
0.4914417555611399 -0.9801901668976857
0.49169279724493176 -1.2218113754265503
0.49208199734664554 -1.4629003271127512
0.4927275599787334 -1.7031393657708023
0.4938843338005329 -1.9418401457883585
0.49585052303684524 -2.1778191181647175
0.49887687244385537 -2.40937504931548
0.5031347241628076 -2.634355507327421
0.5087467325241601 -2.850238401487215
0.5158353224571315 -3.054214895085583
0.5245513307972118 -3.243192457526719
0.535085814386597 -3.413793432227512
0.5476575447567743 -3.5623845775959135
0.5624771143143527 -3.6851953240121547
0.5797865411596651 -3.778528057201054
0.6000190385876829 -3.8388727468995847
0.6235471776223743 -3.8631373561461158
0.6470753166570644 -3.83887274689945
0.6673078140850777 -3.7785280572007838
0.6846172409303825 -3.685195324011768
0.6994368104879523 -3.5623845775954335
0.7120085408581204 -3.4137934322269667
0.7225430244474962 -3.243192457526126
0.7312590327875688 -3.0542148950849586
0.738347622720533 -2.8502384014865787
0.7439596310818786 -2.6343555073267924
0.7482174828008236 -2.4093750493148773
0.7512438322078275 -2.1778191181641553
0.753210021444136 -1.941840145787845
0.7543667952659323 -1.703139365770345
0.7550123578980189 -1.4629003271123533
0.7554015579997322 -1.221811375426217
0.7556525996835239 -0.9801901668974147
0.75579325607973 -0.7381645567025343
0.755846602633412 -0.49579855420900615
0.755873550799129 -0.2531851367716405
0.7563460033067897 -0.010049089882832518
0.5513142296210874 -0.010409359414305232
0.5516391802132252 -0.25321783674937937
0.5516350044972647 -0.4958018223988221
0.5516274748195098 -0.7381625009370244
0.5516704536546101 -0.9801998641560415
0.5517824491575644 -1.2218358706649448
0.5519741172335958 -1.4629426252509645
0.5522862901326269 -1.7032168276660324
0.5528241968727411 -1.9420005078335056
0.5537568622416386 -2.178125902449071
0.5552221125699073 -2.4098783580074854
0.5573152587444725 -2.6350866582308035
0.5600889851143637 -2.8512201556541488
0.5636027235632384 -3.0554747107253277
0.5679393168911421 -3.244765400855691
0.5732233144311886 -3.4157257551933085
0.5796436152275422 -3.564731342893841
0.5874527299589387 -3.688014069261671
0.5969453047993215 -3.7819035910342538
0.6086320668239315 -3.8429722650956744
0.6235471776223594 -3.86809463165275
0.6384622884207866 -3.842972265095539
0.6501490504453947 -3.781903591033983
0.6596416252857727 -3.688014069261282
0.667450740017164 -3.5647313428933587
0.6738710408135133 -3.4157257551927604
0.6791550383535556 -3.2447654008550963
0.6834916316814561 -3.055474710724702
0.687005370130328 -2.8512201556535115
0.689779096500216 -2.6350866582301733
0.6918722426747782 -2.409878358006882
0.6933374930030444 -2.178125902448508
0.6942701583719403 -1.9420005078329918
0.6948080651120532 -1.7032168276655748
0.6951202380110838 -1.4629426252505664
0.695311906087115 -1.2218358706646113
0.6954239015900693 -0.9801998641557705
0.6954668804251696 -0.7381625009368175
0.6954593507474146 -0.49580182239867726
0.6954551750314539 -0.25321783674929743
0.6957801256235909 -0.010409359414288947
0.6118264313003858 -0.010678810772255097
0.6120475122934598 -0.2532505629452315
0.6120102861513513 -0.4958006172500857
0.6119426898151541 -0.7381526561457552
0.6118905266263374 -0.9801959088346914
0.6118638571378946 -1.2218408871641795
0.6118536679884737 -1.4629559377421346
0.6118501408799053 -1.7032403611094935
0.6118490117278389 -1.942042966041216
0.6118489809604636 -2.178203489882794
0.6118491298774834 -2.410006710036121
0.6118480461186109 -2.6352789424137435
0.611840109336465 -2.8514869244071357
0.6118222765024653 -3.055827591316093
0.611807490329966 -3.2452224998597097
0.6118573950071737 -3.4163185556906868
0.6121277891141023 -3.5655137378729
0.612918531526728 -3.689064273332571
0.6146528741451761 -3.783314634502257
0.6178020255193809 -3.8449270628857612
0.6235471776223437 -3.8709659860060883
0.6292923297253069 -3.8449270628856262
0.6324414810995113 -3.783314634501986
0.634175823717958 -3.689064273332181
0.6349665661305832 -3.565513737872418
0.6352369602375127 -3.4163185556901388
0.6352868649147214 -3.2452224998591146
0.6352720787422228 -3.0558275913154676
0.6352542459082252 -2.851486924406498
0.6352463091260808 -2.635278942413113
0.6352452253672094 -2.410006710035517
0.6352453742842301 -2.178203489882231
0.6352453435168552 -1.9420429660407024
0.6352442143647892 -1.7032403611090354
0.635240687256221 -1.4629559377417363
0.6352304981068002 -1.2218408871638462
0.6352038286183577 -0.9801959088344205
0.6351516654295409 -0.7381526561455483
0.6350840690933437 -0.4958006172499407
0.6350468429512351 -0.2532505629451496
0.6352679239443086 -0.010678810772238345
0.6722960399534704 -0.01088234209310781
0.6724453289737607 -0.25328350013104123
0.6723778022876196 -0.4957944172513789
0.6722517717664006 -0.7381351884015985
0.672107187580077 -0.9801787110446691
0.6719440352957619 -1.2218262265013424
0.6717325458941389 -1.4629400729930337
0.6714133068768335 -1.7032161410121955
0.6708734152715734 -1.942000367256999
0.669941028713385 -2.1781259192522398
0.6684764576154811 -2.409878332224538
0.6663797831967807 -2.6350846125377676
0.6635894098837469 -2.8512140437248292
0.66004084213782 -3.055465604959973
0.6556785364297719 -3.2447680989821905
0.6504997219805355 -3.4157867264841686
0.6446131181215076 -3.564950732637075
0.6383042218497331 -3.6885592560013776
0.6320327123851174 -3.7829633331368036
0.6264630442738802 -3.8448521864981213
0.623547177622328 -3.8718513290619967
0.620631310970775 -3.8448521864979868
0.6150616428595383 -3.782963333136532
0.6087901333949259 -3.688559256000988
0.602481237123157 -3.564950732636594
0.5965946332641355 -3.4157867264836215
0.5914158188149049 -3.244768098981596
0.5870535131068619 -3.0554656049593487
0.5835049453609414 -2.8512140437241924
0.5807145720479139 -2.635084612537138
0.5786178976292188 -2.409878332223935
0.5771533265313195 -2.178125919251677
0.5762209399731337 -1.9420003672564854
0.5756810483678754 -1.7032161410117375
0.575361809350571 -1.4629400729926356
0.5751503199489484 -1.2218262265010091
0.5749871676646334 -0.9801787110443981
0.5748425834783101 -0.7381351884013915
0.5747165529570911 -0.4957944172512338
0.5746490262709499 -0.2532835001309593
0.57479831529124 -0.010882342093090823
0.7327352945074839 -0.011037928547443092
0.7328360011458207 -0.2533147876678662
0.7327413998139234 -0.495783625075846
0.7325599595202591 -0.7381102773167497
0.7323263653947758 -0.9801488791635599
0.7320302969614931 -1.2217923332786629
0.731622079690757 -1.462895118607909
0.7309699827043875 -1.7031378257839218
0.7298124753571348 -1.9418399341651167
0.727847619641946 -2.1778193307911633
0.7248213665516399 -2.4093746302951398
0.7205591272262425 -2.6343510586479897
0.7149323378260585 -2.8502259731592487
0.7078147434991453 -3.0541970229006963
0.6990808718505992 -3.2431993041272933
0.6886532838220912 -3.4139183657167527
0.6765875158219629 -3.562822768540745
0.6631431150882837 -3.686262804192676
0.6488513606115103 -3.7806463314102303
0.6348631379247748 -3.842860600905842
0.6235471776223127 -3.870924288149089
0.6122312173198506 -3.8428606009057074