# vtk DataFile Version 3.0
Some data
ASCII
DATASET UNSTRUCTURED_GRID
POINTS 861 float
0.0 0.0 0.0
0.4 0.0 0.0
0.8 0.0 0.0
1.2000000000000002 0.0 0.0
1.6 0.0 0.0
2.0 0.0 0.0
2.4000000000000004 0.0 0.0
2.8000000000000003 0.0 0.0
3.2 0.0 0.0
3.6 0.0 0.0
4.0 0.0 0.0
4.4 0.0 0.0
4.800000000000001 0.0 0.0
5.2 0.0 0.0
5.6000000000000005 0.0 0.0
6.0 0.0 0.0
6.4 0.0 0.0
6.800000000000001 0.0 0.0
7.2 0.0 0.0
7.6000000000000005 0.0 0.0
8.0 0.0 0.0
8.4 0.0 0.0
8.8 0.0 0.0
9.200000000000001 0.0 0.0
9.600000000000001 0.0 0.0
10.0 0.0 0.0
10.4 0.0 0.0
10.8 0.0 0.0
11.200000000000001 0.0 0.0
11.600000000000001 0.0 0.0
12.0 0.0 0.0
12.4 0.0 0.0
12.8 0.0 0.0
13.200000000000001 0.0 0.0
13.600000000000001 0.0 0.0
14.0 0.0 0.0
14.4 0.0 0.0
14.8 0.0 0.0
15.200000000000001 0.0 0.0
15.600000000000001 0.0 0.0
16.0 0.0 0.0
0.0 0.1 0.0
0.4 0.1 0.0
0.8 0.1 0.0
1.2000000000000002 0.1 0.0
1.6 0.1 0.0
2.0 0.1 0.0
2.4000000000000004 0.1 0.0
2.8000000000000003 0.1 0.0
3.2 0.1 0.0
3.6 0.1 0.0
4.0 0.1 0.0
4.4 0.1 0.0
4.800000000000001 0.1 0.0
5.2 0.1 0.0
5.6000000000000005 0.1 0.0
6.0 0.1 0.0
6.4 0.1 0.0
6.800000000000001 0.1 0.0
7.2 0.1 0.0
7.6000000000000005 0.1 0.0
8.0 0.1 0.0
8.4 0.1 0.0
8.8 0.1 0.0
9.200000000000001 0.1 0.0
9.600000000000001 0.1 0.0
10.0 0.1 0.0
10.4 0.1 0.0
10.8 0.1 0.0
11.200000000000001 0.1 0.0
11.600000000000001 0.1 0.0
12.0 0.1 0.0
12.4 0.1 0.0
12.8 0.1 0.0
13.200000000000001 0.1 0.0
13.600000000000001 0.1 0.0
14.0 0.1 0.0
14.4 0.1 0.0
14.8 0.1 0.0
15.200000000000001 0.1 0.0
15.600000000000001 0.1 0.0
16.0 0.1 0.0
0.0 0.2 0.0
0.4 0.2 0.0
0.8 0.2 0.0
1.2000000000000002 0.2 0.0
1.6 0.2 0.0
2.0 0.2 0.0
2.4000000000000004 0.2 0.0
2.8000000000000003 0.2 0.0
3.2 0.2 0.0
3.6 0.2 0.0
4.0 0.2 0.0
4.4 0.2 0.0
4.800000000000001 0.2 0.0
5.2 0.2 0.0
5.6000000000000005 0.2 0.0
6.0 0.2 0.0
6.4 0.2 0.0
6.800000000000001 0.2 0.0
7.2 0.2 0.0
7.6000000000000005 0.2 0.0
8.0 0.2 0.0
8.4 0.2 0.0
8.8 0.2 0.0
9.200000000000001 0.2 0.0
9.600000000000001 0.2 0.0
10.0 0.2 0.0
10.4 0.2 0.0
10.8 0.2 0.0
11.200000000000001 0.2 0.0
11.600000000000001 0.2 0.0
12.0 0.2 0.0
12.4 0.2 0.0
12.8 0.2 0.0
13.200000000000001 0.2 0.0
13.600000000000001 0.2 0.0
14.0 0.2 0.0
14.4 0.2 0.0
14.8 0.2 0.0
15.200000000000001 0.2 0.0
15.600000000000001 0.2 0.0
16.0 0.2 0.0
0.0 0.30000000000000004 0.0
0.4 0.30000000000000004 0.0
0.8 0.30000000000000004 0.0
1.2000000000000002 0.30000000000000004 0.0
1.6 0.30000000000000004 0.0
2.0 0.30000000000000004 0.0
2.4000000000000004 0.30000000000000004 0.0
2.8000000000000003 0.30000000000000004 0.0
3.2 0.30000000000000004 0.0
3.6 0.30000000000000004 0.0
4.0 0.30000000000000004 0.0
4.4 0.30000000000000004 0.0
4.800000000000001 0.30000000000000004 0.0
5.2 0.30000000000000004 0.0
5.6000000000000005 0.30000000000000004 0.0
6.0 0.30000000000000004 0.0
6.4 0.30000000000000004 0.0
6.800000000000001 0.30000000000000004 0.0
7.2 0.30000000000000004 0.0
7.6000000000000005 0.30000000000000004 0.0
8.0 0.30000000000000004 0.0
8.4 0.30000000000000004 0.0
8.8 0.30000000000000004 0.0
9.200000000000001 0.30000000000000004 0.0
9.600000000000001 0.30000000000000004 0.0
10.0 0.30000000000000004 0.0
10.4 0.30000000000000004 0.0
10.8 0.30000000000000004 0.0
11.200000000000001 0.30000000000000004 0.0
11.600000000000001 0.30000000000000004 0.0
12.0 0.30000000000000004 0.0
12.4 0.30000000000000004 0.0
12.8 0.30000000000000004 0.0
13.200000000000001 0.30000000000000004 0.0
13.600000000000001 0.30000000000000004 0.0
14.0 0.30000000000000004 0.0
14.4 0.30000000000000004 0.0
14.8 0.30000000000000004 0.0
15.200000000000001 0.30000000000000004 0.0
15.600000000000001 0.30000000000000004 0.0
16.0 0.30000000000000004 0.0
0.0 0.4 0.0
0.4 0.4 0.0
0.8 0.4 0.0
1.2000000000000002 0.4 0.0
1.6 0.4 0.0
2.0 0.4 0.0
2.4000000000000004 0.4 0.0
2.8000000000000003 0.4 0.0
3.2 0.4 0.0
3.6 0.4 0.0
4.0 0.4 0.0
4.4 0.4 0.0
4.800000000000001 0.4 0.0
5.2 0.4 0.0
5.6000000000000005 0.4 0.0
6.0 0.4 0.0
6.4 0.4 0.0
6.800000000000001 0.4 0.0
7.2 0.4 0.0
7.6000000000000005 0.4 0.0
8.0 0.4 0.0
8.4 0.4 0.0
8.8 0.4 0.0
9.200000000000001 0.4 0.0
9.600000000000001 0.4 0.0
10.0 0.4 0.0
10.4 0.4 0.0
10.8 0.4 0.0
11.200000000000001 0.4 0.0
11.600000000000001 0.4 0.0
12.0 0.4 0.0
12.4 0.4 0.0
12.8 0.4 0.0
13.200000000000001 0.4 0.0
13.600000000000001 0.4 0.0
14.0 0.4 0.0
14.4 0.4 0.0
14.8 0.4 0.0
15.200000000000001 0.4 0.0
15.600000000000001 0.4 0.0
16.0 0.4 0.0
0.0 0.5 0.0
0.4 0.5 0.0
0.8 0.5 0.0
1.2000000000000002 0.5 0.0
1.6 0.5 0.0
2.0 0.5 0.0
2.4000000000000004 0.5 0.0
2.8000000000000003 0.5 0.0
3.2 0.5 0.0
3.6 0.5 0.0
4.0 0.5 0.0
4.4 0.5 0.0
4.800000000000001 0.5 0.0
5.2 0.5 0.0
5.6000000000000005 0.5 0.0
6.0 0.5 0.0
6.4 0.5 0.0
6.800000000000001 0.5 0.0
7.2 0.5 0.0
7.6000000000000005 0.5 0.0
8.0 0.5 0.0
8.4 0.5 0.0
8.8 0.5 0.0
9.200000000000001 0.5 0.0
9.600000000000001 0.5 0.0
10.0 0.5 0.0
10.4 0.5 0.0
10.8 0.5 0.0
11.200000000000001 0.5 0.0
11.600000000000001 0.5 0.0
12.0 0.5 0.0
12.4 0.5 0.0
12.8 0.5 0.0
13.200000000000001 0.5 0.0
13.600000000000001 0.5 0.0
14.0 0.5 0.0
14.4 0.5 0.0
14.8 0.5 0.0
15.200000000000001 0.5 0.0
15.600000000000001 0.5 0.0
16.0 0.5 0.0
0.0 0.6000000000000001 0.0
0.4 0.6000000000000001 0.0
0.8 0.6000000000000001 0.0
1.2000000000000002 0.6000000000000001 0.0
1.6 0.6000000000000001 0.0
2.0 0.6000000000000001 0.0
2.4000000000000004 0.6000000000000001 0.0
2.8000000000000003 0.6000000000000001 0.0
3.2 0.6000000000000001 0.0
3.6 0.6000000000000001 0.0
4.0 0.6000000000000001 0.0
4.4 0.6000000000000001 0.0
4.800000000000001 0.6000000000000001 0.0
5.2 0.6000000000000001 0.0
5.6000000000000005 0.6000000000000001 0.0
6.0 0.6000000000000001 0.0
6.4 0.6000000000000001 0.0
6.800000000000001 0.6000000000000001 0.0
7.2 0.6000000000000001 0.0
7.6000000000000005 0.6000000000000001 0.0
8.0 0.6000000000000001 0.0
8.4 0.6000000000000001 0.0
8.8 0.6000000000000001 0.0
9.200000000000001 0.6000000000000001 0.0
9.600000000000001 0.6000000000000001 0.0
10.0 0.6000000000000001 0.0
10.4 0.6000000000000001 0.0
10.8 0.6000000000000001 0.0
11.200000000000001 0.6000000000000001 0.0
11.600000000000001 0.6000000000000001 0.0
12.0 0.6000000000000001 0.0
12.4 0.6000000000000001 0.0
12.8 0.6000000000000001 0.0
13.200000000000001 0.6000000000000001 0.0
13.600000000000001 0.6000000000000001 0.0
14.0 0.6000000000000001 0.0
14.4 0.6000000000000001 0.0
14.8 0.6000000000000001 0.0
15.200000000000001 0.6000000000000001 0.0
15.600000000000001 0.6000000000000001 0.0
16.0 0.6000000000000001 0.0
0.0 0.7000000000000001 0.0
0.4 0.7000000000000001 0.0
0.8 0.7000000000000001 0.0
1.2000000000000002 0.7000000000000001 0.0
1.6 0.7000000000000001 0.0
2.0 0.7000000000000001 0.0
2.4000000000000004 0.7000000000000001 0.0
2.8000000000000003 0.7000000000000001 0.0
3.2 0.7000000000000001 0.0
3.6 0.7000000000000001 0.0
4.0 0.7000000000000001 0.0
4.4 0.7000000000000001 0.0
4.800000000000001 0.7000000000000001 0.0
5.2 0.7000000000000001 0.0
5.6000000000000005 0.7000000000000001 0.0
6.0 0.7000000000000001 0.0
6.4 0.7000000000000001 0.0
6.800000000000001 0.7000000000000001 0.0
7.2 0.7000000000000001 0.0
7.6000000000000005 0.7000000000000001 0.0
8.0 0.7000000000000001 0.0
8.4 0.7000000000000001 0.0
8.8 0.7000000000000001 0.0
9.200000000000001 0.7000000000000001 0.0
9.600000000000001 0.7000000000000001 0.0
10.0 0.7000000000000001 0.0
10.4 0.7000000000000001 0.0
10.8 0.7000000000000001 0.0
11.200000000000001 0.7000000000000001 0.0
11.600000000000001 0.7000000000000001 0.0
12.0 0.7000000000000001 0.0
12.4 0.7000000000000001 0.0
12.8 0.7000000000000001 0.0
13.200000000000001 0.7000000000000001 0.0
13.600000000000001 0.7000000000000001 0.0
14.0 0.7000000000000001 0.0
14.4 0.7000000000000001 0.0
14.8 0.7000000000000001 0.0
15.200000000000001 0.7000000000000001 0.0
15.600000000000001 0.7000000000000001 0.0
16.0 0.7000000000000001 0.0
0.0 0.8 0.0
0.4 0.8 0.0
0.8 0.8 0.0
1.2000000000000002 0.8 0.0
1.6 0.8 0.0
2.0 0.8 0.0
2.4000000000000004 0.8 0.0
2.8000000000000003 0.8 0.0
3.2 0.8 0.0
3.6 0.8 0.0
4.0 0.8 0.0
4.4 0.8 0.0
4.800000000000001 0.8 0.0
5.2 0.8 0.0
5.6000000000000005 0.8 0.0
6.0 0.8 0.0
6.4 0.8 0.0
6.800000000000001 0.8 0.0
7.2 0.8 0.0
7.6000000000000005 0.8 0.0
8.0 0.8 0.0
8.4 0.8 0.0
8.8 0.8 0.0
9.200000000000001 0.8 0.0
9.600000000000001 0.8 0.0
10.0 0.8 0.0
10.4 0.8 0.0
10.8 0.8 0.0
11.200000000000001 0.8 0.0
11.600000000000001 0.8 0.0
12.0 0.8 0.0
12.4 0.8 0.0
12.8 0.8 0.0
13.200000000000001 0.8 0.0
13.600000000000001 0.8 0.0
14.0 0.8 0.0
14.4 0.8 0.0
14.8 0.8 0.0
15.200000000000001 0.8 0.0
15.600000000000001 0.8 0.0
16.0 0.8 0.0
0.0 0.9 0.0
0.4 0.9 0.0
0.8 0.9 0.0
1.2000000000000002 0.9 0.0
1.6 0.9 0.0
2.0 0.9 0.0
2.4000000000000004 0.9 0.0
2.8000000000000003 0.9 0.0
3.2 0.9 0.0
3.6 0.9 0.0
4.0 0.9 0.0
4.4 0.9 0.0
4.800000000000001 0.9 0.0
5.2 0.9 0.0
5.6000000000000005 0.9 0.0
6.0 0.9 0.0
6.4 0.9 0.0
6.800000000000001 0.9 0.0
7.2 0.9 0.0
7.6000000000000005 0.9 0.0
8.0 0.9 0.0
8.4 0.9 0.0
8.8 0.9 0.0
9.200000000000001 0.9 0.0
9.600000000000001 0.9 0.0
10.0 0.9 0.0
10.4 0.9 0.0
10.8 0.9 0.0
11.200000000000001 0.9 0.0
11.600000000000001 0.9 0.0
12.0 0.9 0.0
12.4 0.9 0.0
12.8 0.9 0.0
13.200000000000001 0.9 0.0
13.600000000000001 0.9 0.0
14.0 0.9 0.0
14.4 0.9 0.0
14.8 0.9 0.0
15.200000000000001 0.9 0.0
15.600000000000001 0.9 0.0
16.0 0.9 0.0
0.0 1.0 0.0
0.4 1.0 0.0
0.8 1.0 0.0
1.2000000000000002 1.0 0.0
1.6 1.0 0.0
2.0 1.0 0.0
2.4000000000000004 1.0 0.0
2.8000000000000003 1.0 0.0
3.2 1.0 0.0
3.6 1.0 0.0
4.0 1.0 0.0
4.4 1.0 0.0
4.800000000000001 1.0 0.0
5.2 1.0 0.0
5.6000000000000005 1.0 0.0
6.0 1.0 0.0
6.4 1.0 0.0
6.800000000000001 1.0 0.0
7.2 1.0 0.0
7.6000000000000005 1.0 0.0
8.0 1.0 0.0
8.4 1.0 0.0
8.8 1.0 0.0
9.200000000000001 1.0 0.0
9.600000000000001 1.0 0.0
10.0 1.0 0.0
10.4 1.0 0.0
10.8 1.0 0.0
11.200000000000001 1.0 0.0
11.600000000000001 1.0 0.0
12.0 1.0 0.0
12.4 1.0 0.0
12.8 1.0 0.0
13.200000000000001 1.0 0.0
13.600000000000001 1.0 0.0
14.0 1.0 0.0
14.4 1.0 0.0
14.8 1.0 0.0
15.200000000000001 1.0 0.0
15.600000000000001 1.0 0.0
16.0 1.0 0.0
0.0 1.1 0.0
0.4 1.1 0.0
0.8 1.1 0.0
1.2000000000000002 1.1 0.0
1.6 1.1 0.0
[...]
POINT_DATA 861
SCALARS Disp float 2
LOOKUP_TABLE default
0.0 0.0
0.005522710978491885 -0.223052803221669
0.006780612375119244 -0.43729625126659083
0.007551713552956599 -0.6505658970630893
0.008529538267547465 -0.8634907773748632
0.010063446766967242 -1.0757025496960455
0.012700705738461418 -1.286715977382521
0.01709697559903914 -1.4959234745600134
0.024020136142141397 -1.7025685360014544
0.03430635845393004 -1.9056724642051581
0.04879553698041802 -2.1039188908561433
0.06829364237562678 -2.295576489936011
0.09355587836831572 -2.4785116950681374
0.12527856131888476 -2.6502853928614427
0.16409893151914084 -2.8082285694837874
0.21052923904918455 -2.9494992674585325
0.2648334636252213 -3.0711516342487766
0.32687496552223133 -3.17024992185423
0.3959817817683495 -3.2440668113272664
0.4708847707002817 -3.2903260307565394
0.5495514960971304 -3.3074662765056133
0.6282182214939742 -3.2903260307564364
0.7031212104258905 -3.2440668113270585
0.7722280266719826 -3.1702499218539293
0.8342695285689581 -3.0711516342483987
0.8885737531449582 -2.9494992674581026
0.9350040606749656 -2.808228569483315
0.9738244308751842 -2.650285392860943
1.0055471138257166 -2.4785116950676254
1.03080934981837 -2.295576489935504
1.0503074552135474 -2.1039188908556534
1.0647966337400099 -1.905672464204696
1.0750828560517784 -1.7025685360010274
1.0820060165948655 -1.495923474559628
1.0864022864554324 -1.2867159773821806
1.0890395454269204 -1.0757025496957568
1.0905734539263374 -0.8634907773746268
1.0915512786409276 -0.6505658970629079
1.0923223798187647 -0.43729625126646304
1.093580281215391 -0.22305280322159793
1.099102992193879 0.0
0.05563982216024234 -0.0023160579963111944
0.059477338778334166 -0.22329036976677666
0.060139823980560725 -0.43735762775578296
0.06082543558368245 -0.6506532236378296
0.06168701659646479 -0.8636252661233345
0.06299602835166002 -1.0759912888026106
0.06526761566412369 -1.2873072056183374
0.06912150674681034 -1.4969932889134718
0.0752794666323316 -1.7043133555256789
0.08450543815129366 -1.908292108483666
0.09754878468575413 -2.1076059710854746
0.11511341298621973 -2.3005126705715297
0.13786259536986165 -2.4848681588083155
0.16643044788757186 -2.6582225817781038
0.2014001882150298 -2.8178893086985255
0.24325011317520948 -2.9609856702480903
0.29224077012109007 -3.084490620388167
0.348279005922207 -3.1853574433188827
0.4107926957977995 -3.260719128912061
0.47859192706123277 -3.308136892012871
0.5495514960971177 -3.3257530030837588
0.620511065132998 -3.3081368920127656
0.6883102963964165 -3.2607191289118482
0.7508239862719861 -3.185357443318574
0.8068622220730731 -3.084490620387781
0.8558528790189212 -2.960985670247652
0.8977028039790678 -2.8178893086980445
0.932672544306492 -2.6582225817775953
0.9612403968241692 -2.484868158807795
0.9839895792077794 -2.3005126705710137
1.0015542075082167 -2.1076059710849777
1.0145975540426542 -1.9082921084831987
1.0238235255615977 -1.704313355525248
1.029981485447105 -1.4969932889130835
1.0338353765297823 -1.2873072056179955
1.0361069638422404 -1.075991288802321
1.0374159755974335 -0.8636252661230978
1.0382775566102154 -0.6506532236376482
1.0389631682133371 -0.4373576277556552
1.0396256534155635 -0.22329036976670522
1.0434631700336499 -0.0023160579963086825
0.11033470907816194 -0.004148524597117017
0.11313781457239036 -0.2234072387396359
0.11351904514674334 -0.43739161768752216
0.11407897448862431 -0.6507303449895288
0.11483321891356599 -0.8637336704058719
0.11594033015024952 -1.076219850359925
0.11785396915441537 -1.2877960513530393
0.12116789511822526 -1.4979091849230068
0.12654785141806554 -1.7058391061131533
0.13468838331631713 -1.910608368559801
0.14625233075164482 -2.1108822435479726
0.16185088144420565 -2.304906561240163
0.18205795081725923 -2.4905306470556083
0.2074321153579352 -2.6652997745651787
0.23850682589507796 -2.826512621295308
0.2757254793626065 -2.971252161400929
0.3193536995903529 -3.0964331971193606
0.3693586207137545 -3.1989112567664697
0.42526472880119104 -3.2756876355294664
0.4859539937316567 -3.3241337636629753
0.5495514960971056 -3.342182060067266
0.6131489984625499 -3.324133763662868
0.673838263393002 -3.275687635529249
0.7297443714804184 -3.1989112567661553
0.7797492926037939 -3.0964331971189676
0.8233775128315117 -2.9712521614004825
0.8605961662990105 -2.8265126212948193
0.8916708768361234 -2.6652997745646623
0.91704504137677 -2.4905306470550803
0.9372521107497956 -2.30490656123964
0.9528506614423311 -2.1108822435474695
0.9644146088776383 -1.910608368559329
0.9725551407758732 -1.7058391061127187
0.977935097075701 -1.4979091849226158
0.9812490230395028 -1.2877960513526958
0.983162662043664 -1.0762198503596347
0.9842697732803458 -0.8637336704056349
0.9850240177052872 -0.6507303449893473
0.9855839470471682 -0.43739161768739443
0.9859651776215212 -0.22340723873956408
0.9887682831157444 -0.004148524597111848
0.16453274862216472 -0.005618688345542198
0.16664354532625358 -0.22348668242459988
0.1668765499600543 -0.4374105689240445
0.1673148610164153 -0.6507932529462878
0.16796292109124392 -0.8638233409302608
0.16889283502757327 -1.0763956668864536
0.1704691498162686 -1.2881859621698593
0.17324883613058586 -1.4986723872901277
0.17784648674930212 -1.7071431879126189
0.18488663482977674 -1.9126162522142616
0.1949500107966229 -2.1137416157961204
0.2085591084954961 -2.308752907984902
0.2262028786386629 -2.4954940911554866
0.2483629271766758 -2.671509552103688
0.2755098769869868 -2.834089233667124
0.308059247282245 -2.9802886009567833
0.3462854455905278 -3.1069702621562167
0.3902156834388853 -3.2109053188125984
0.4394772902891888 -3.28896673040535
0.4931204483428173 -3.338354665544136
0.5495514960970939 -3.356838927042502
0.6059825438513661 -3.338354665544027
0.6596257019049823 -3.288966730405128
0.708887308755268 -3.2109053188122783
0.7528175466036028 -3.106970262155818
0.7910437449118606 -2.98028860095633
0.8235931152070926 -2.834089233666629
0.8507400650173775 -2.671509552103165
0.8729001135553645 -2.495494091154952
0.8905438836985069 -2.3087529079843727
0.9041529813973583 -2.113741615795612
0.9142163573641863 -1.9126162522137853
0.921256505444646 -1.707143187912181
0.9258541560633513 -1.4986723872897345
0.9286338423776617 -1.2881859621695144
0.9302101571663534 -1.076395666886163
0.9311400711026815 -0.8638233409300237
0.9317881311775098 -0.6507932529461063
0.9322264422338709 -0.4374105689239169
0.9324594468676717 -0.22348668242452768
0.9345702435717559 -0.0056186883455346314
0.21844643604851677 -0.006804655216415745
0.22004216169782184 -0.22354907915374372
0.22019434670799798 -0.4374214719766405
0.22052973351309818 -0.6508421568094016
0.22107281396289016 -0.8638975501560727
0.22184544105048176 -1.076529905718338
0.2231194276165973 -1.2884843498661525
0.2253764104447374 -1.4992855862929204
0.22919678734540525 -1.7082259819375036
0.23513192918421102 -1.9143136579664113
0.24368438093205758 -2.1161812727019007
0.25529282686591503 -2.312048622731822
0.27036087608149256 -2.49975572821814
0.2892937718947932 -2.6768489315092583
0.3125027433730949 -2.8406139901858163
0.3403611949597861 -2.988087905980402
0.37315003908051025 -3.1160930164396703
0.4109584686599059 -3.22132903174747
0.4535427226761638 -3.3005566025259823
0.5001725483861686 -3.3508278540706358
0.5495514960970823 -3.369771235834812
0.5989304438079918 -3.3508278540705243
0.6455602695179853 -3.300556602525757
0.688144523534228 -3.2213290317471452
0.7259529531136042 -3.116093016439266
0.7587417972343065 -2.988087905979943
0.7866002488209749 -2.840613990185316
0.8098092202992544 -2.67684893150873
0.8287421161125328 -2.499755728217599
0.8438101653280895 -2.3120486227312873
0.8554186112619286 -2.116181272701388
0.8639710630097595 -1.9143136579659314
0.8699062048485524 -1.7082259819370627
0.8737265817492108 -1.4992855862925254
0.8759835645773453 -1.2884843498658063
0.877257551143458 -1.076529905718047
0.8780301782310488 -0.8638975501558355
0.8785732586808406 -0.6508421568092202
0.8789086454859408 -0.43742147197651293
0.879060830496117 -0.22354907915367128
0.8806565561454182 -0.006804655216406041
0.27217200360053395 -0.0077556614949052015
0.2733657010615905 -0.22360133723550701
0.2734706830695239 -0.4374290936217832
0.27372081922604097 -0.6508783178726992
0.2741598244471574 -0.8639585916768504
0.27479206985776844 -1.076631992526245
0.27579700563801496 -1.2887038629898666
0.27756933022452757 -1.499754114854287
0.2806203939247536 -1.7090902819145353
0.2854563067542475 -1.915701668225928
0.29249846782690714 -2.118201111854291
0.3021048423312425 -2.314793741837637
0.31459753460775064 -2.503315630262984
0.3303042511240233 -2.6813177703818742
0.34957110838929767 -2.8460867070196865
0.37273653698358256 -2.9946473226431043
0.4000702829858026 -3.123793520878487
0.431711297758389 -3.2301715570636134
0.46757087733099606 -3.3104537305288964
0.5071774305566629 -3.3615670254816465
0.5495514960970705 -3.381007077686207
0.5919255616374746 -3.3615670254815333
0.6315321148631314 -3.3104537305286685
0.6673916944357254 -3.2301715570632847
0.6990327092082954 -3.123793520878079
0.7263664552104967 -2.9946473226426398
0.7495318838047625 -2.8460867070191807
0.7687987410700187 -2.6813177703813404
0.7845054575862729 -2.503315630262439
0.7969981498627638 -2.3147937418370983
0.8066045243670837 -2.1182011118537742
0.8136466854397302 -1.9157016682254449
0.8184825982692135 -1.709090281914092
0.8215336619694319 -1.4997541148538904
0.8233059865559401 -1.28870386298952
0.8243109223361847 -1.076631992525954
0.8249431677467952 -0.8639585916766133
0.8253821729679114 -0.6508783178725178
0.8256323091244286 -0.4374290936216557
0.8257372911323619 -0.22360133723543432
0.8269309885934153 -0.007755661494893698
0.32576039984436034 -0.008509433318530938
0.3266363434799679 -0.22364597961008925
0.3267104299151944 -0.4374358561693279
0.326887819310885 -0.6509031555679765
0.32722384146003736 -0.8640073516642973
0.3277261151549966 -1.0767093689446567
0.3284924425705495 -1.2888593062238913
0.32982431832724135 -1.500091835155099
0.3321435194442873 -1.709741848321829
0.33589281926478337 -1.9167842982569387
0.34143647236098834 -2.119804354609477
0.3490505274262737 -2.3169912436943294
0.3589783311528535 -2.506177266228331
0.3714718080742625 -2.6849198341695315
0.38681191769244555 -2.850510196727771
0.40528989660108883 -2.9999684208942288
0.42716442836755 -3.1300683385686145
0.4526103962377429 -3.237422344288234
0.48168278053824337 -3.3186471384499225
0.5142030753951714 -3.3705708749788164
0.5495514960970587 -3.390558199894232
0.5848999167989427 -3.370570874978702
0.6174202116558621 -3.318647138449692
0.6464925959563519 -3.2374223442879018
0.6719385638265313 -3.1300683385682024
0.6938130955929773 -2.9999684208937607
0.7122910745016052 -2.850510196727261
0.7276311841197733 -2.6849198341689937
0.7401246610411684 -2.5061772662277817
0.7500524647677345 -2.316991243693787
0.7576665198330074 -2.119804354608957
0.7632101729292018 -1.916784298256453
0.7669594727496896 -1.7097418483213838
0.7692786738667295 -1.5000918351547012
0.7706105496234182 -1.2888593062235443
0.7713768770389698 -1.0767093689443654
0.7718791507339288 -0.8640073516640602
0.7722151728830811 -0.650903155567795
0.7723925622787717 -0.43743585616920044
0.7724666487139981 -0.22364597961001645
0.7733425923496031 -0.008509433318517948
0.3792459290929471 -0.009096173014650698
0.3798706841469073 -0.22368499362623726
0.3799206461059411 -0.4374422782278937
0.38003240837406477 -0.6509180106689196
0.3802671220590904 -0.8640433699887706
0.38064137941732196 -1.0767675720923848
0.3812004628305478 -1.288963872228945
0.38213566844711744 -1.5003172236768807
0.3837766454883877 -1.710195018408682
0.38647900114657235 -1.917569533823503
0.39054505465534195 -2.120997500661692
0.3961858394324673 -2.3186475061052505
0.40357143415035673 -2.508347809772296
0.4128780248852383 -2.6876629262681435
0.42431707648767175 -2.8538920652529884
0.4381311894272753 -3.004056652955814
0.4545591400862588 -3.134918803411023
0.4737933556421322 -3.243073573325887
0.49600909736908677 -3.325118476127071
0.521326878957779 -3.377821553830707
0.5495514960970463 -3.3984195614609445
0.5777761132363113 -3.3778215538305916
0.6030938948249968 -3.3251184761268386
0.625309636551943 -3.243073573325552
0.6445438521078056 -3.134918803410608
0.6609718027667775 -3.0040566529553425
0.6747859157063694 -2.853892065252475
0.6862249673087921 -2.687662926267602
0.6955315580436633 -2.508347809771744
0.7029171527615428 -2.318647506104705
0.7085579375386585 -2.12099750066117
0.7126239910474205 -1.917569533823015
0.7153263467055992 -1.7101950184082357
0.7169673237468653 -1.5003172236764821
0.7179025293634327 -1.2889638722285974
0.7184616127766579 -1.0767675720920933
0.7188358701348893 -0.8640433699885334
0.7190705838199147 -0.650918010668738
0.7191823460880383 -0.4374422782277662
0.719232308047072 -0.22368499362616434
0.7198570631010305 -0.009096173014636515
0.43264918507357847 -0.009544528541857448
0.4330842715015046 -0.2237200965167699
0.43310777936612305 -0.4374475686438131
0.43315761453765594 -0.6509239467308409
0.4332938526250752 -0.8640659898609436
0.4335361930647857 -1.076808796881084
0.43390660425053323 -1.2890312479417911
0.43449690064140306 -1.5004514149489918
0.4355211042014112 -1.7104725069885185
0.43723911295128043 -1.9180744937989163
0.43987298450312445 -2.121792360430411
0.44357411082033116 -2.3197734905258103
0.44844865667034906 -2.509838935961799
0.4546057115860413 -2.6895598929008133
0.4621853247814519 -2.856244815239332
0.47137022935931155 -3.006922625116672
0.482375328780615 -3.138352958438873
0.4954124113063499 -3.2471228182989234
0.5107079742388173 -3.3298440657679738
0.5286453797685783 -3.383282793446267
0.5495514960970336 -3.4045674555125487
0.5704576124254871 -3.3832827934461505
0.5883950179552438 -3.3298440657677397
0.6036905808877051 -3.2471228182985863
0.6167276634134324 -3.138352958438455
0.6277327628347278 -3.0069226251161987
0.6369176674125796 -2.856244815238816
0.6444972806079833 -2.6895598929002706
0.6506543355236696 -2.509838935961245
0.6555288813736809 -2.319773490525263
0.6592300076908815 -2.1217923604298865
0.6618638792427204 -1.9180744937984269
0.6635818879925862 -1.7104725069880713
0.6646060915525918 -1.5004514149485926
0.6651963879434604 -1.2890312479414434
0.6655667991292075 -1.076808796880793
0.665809139568918 -0.8640659898607063
0.6659453776563371 -0.6509239467306592
0.66599521282787 -0.43744756864368556
0.6660187206924882 -0.223720096516697
0.6664538071204134 -0.009544528541842328
0.48598428293882423 -0.009883673742365866
0.4862852766458666 -0.2237535414370596
0.48627776971256675 -0.43745003042333064
0.48626744039162834 -0.6509217382455709
0.48630817471127763 -0.864075180386905
0.4864158544595752 -1.0768320618427698
0.48659843150110005 -1.2890705020921946
0.4868885444553179 -1.5005191749419862
0.487369432618351 -1.7106065683706457
0.48818470021872656 -1.9183295529175117
0.4894579073378643 -2.1222134331898697
0.4912753063965566 -2.3203896686333376
0.4936832177145207 -2.510670078290307
0.4967348319658242 -2.690631406257583
0.5005048137309323 -2.8575894890192584
0.5051064978253698 -3.0085845111150666
0.5107147655070338 -3.14038534614655
0.517568491869933 -3.2495819272308237
0.5259503666122556 -3.3328067918194924
0.536307165463753 -3.3868972941447377
0.5495514960970205 -3.408951355739973
0.5627958267302872 -3.3868972941446205
0.5731526255817824 -3.332806791819257
0.5815345003241011 -3.2495819272304853
0.588388226686996 -3.140385346146131
0.5939964943686561 -3.008584511114591
0.5985981784630902 -2.857589489018741
0.6023681602281954 -2.690631406257039
0.6054197744794966 -2.510670078289752
0.6078276857974578 -2.3203896686327896
0.6096450848561472 -2.1222134331893447
0.6109182919752829 -1.9183295529170217
0.6117335595756573 -1.7106065683701983
0.6122144477386892 -1.500519174941587
0.6125045606929067 -1.2890705020918471
0.6126871377344314 -1.0768320618424785
0.612794817482729 -0.8640751803866676
0.6128355518023783 -0.6509217382453892
0.6128252224814398 -0.4374500304232031
0.6128177155481398 -0.22375354143698678
0.6131187092551815 -0.009883673742350097
0.5392677098411913 -0.010138550519010242
0.5394744080315025 -0.22378771787434384
0.5394355890777544 -0.4374480934004174
0.5393664171775671 -0.65091189460148
0.5393142650628696 -0.8640711474653946
0.5392878387575428 -1.0768366211494667
0.5392778236274182 -1.2890828925264597
0.5392747803533245 -1.5005404490442473
0.5392740141578722 -1.7106434189880613
0.5392741163421526 -1.9183946664107911
0.5392743299091209 -2.1223208320787537
0.5392737689371514 -2.3205494629297005
0.5392678137841787 -2.5108917198524523
0.5392530159742761 -2.690925864203406
0.5392371859553017 -2.8579729619707006
0.539268993007734 -3.009084984966841
0.5394819404104073 -3.141051715118839
0.5401459586287845 -3.2504871242914772
0.5416561093965827 -3.334038868277347
0.5444532918621572 -3.3886154310531538
0.549551496097007 -3.4114895432480474
0.5546497003318569 -3.3886154310530365
0.5574468827974305 -3.334038868277111
0.5589570335652275 -3.250487124291138
0.5596210517836044 -3.14105171511842
0.5598339991862785 -3.0090849849663646
0.5598658062387114 -2.857972961970183
0.5598499762197381 -2.6909258642028617
0.5598351784098371 -2.510891719851897
0.5598292232568656 -2.320549462929152
0.559828662284897 -2.1223208320782283
0.5598288758518662 -1.918394666410301
0.5598289780361473 -1.7106434189876134
0.559828211840695 -1.5005404490438479
0.5598251685666015 -1.2890828925261122
0.559815153436477 -1.0768366211491753
0.5597887271311505 -0.8640711474651572
0.5597365750164531 -0.6509118946012984
0.5596674031162657 -0.4374480934002896
0.5596285841625177 -0.22378771787427104
0.5598352823528283 -0.010138550518994049
0.5925104921409281 -0.010332816198668065
0.5926523225197966 -0.22382195074809885
0.5925852056695167 -0.43744155363081416
0.592459353161681 -0.6508945946494841
0.5923170660887495 -0.8640543217227337
0.5921586907477064 -1.0768223744749235
0.5919569881522879 -1.2890679366152664
0.5916606485491253 -1.5005185909376821
0.5911783362251265 -1.7106065113315403
0.5903634842059904 -1.9183295900641848
0.5890911227048934 -2.1222135099069654
0.5872715675099747 -2.3203882039033292
0.5848510275862224 -2.5106653106324424
0.581770114023207 -2.690623322414952
0.5779712456531241 -2.8575889109419093
0.5734372927198984 -3.008629665427519
0.568248270082917 -3.1405637303201868
0.5626493394186445 -3.250045995565522
0.5570609526332043 -3.3337336101391113
0.552098410356157 -3.3885517190028644
0.5495514960969933 -3.412288900412977
0.5470045818378291 -3.388551719002747
0.5420420395607812 -3.333733610138876
0.5364536527753442 -3.250045995565184
0.5308547221110766 -3.1405637303197684
0.5256656994741009 -3.0086296654270432
0.5211317465408798 -2.8575889109413923
0.5173328781708018 -2.6906233224144085
0.5142519646077918 -2.5106653106318886
0.5118314246840449 -2.320388203902781
0.5100118694891309 -2.1222135099064405
0.5087395079880378 -1.9183295900636947
0.5079246559689042 -1.7106065113310924
0.5074423436449068 -1.500518590937283
0.5071460040417449 -1.289067936614919
0.5069443014463267 -1.0768223744746324
0.5067859261052841 -0.8640543217224963
0.5066436390323527 -0.6508945946493025
0.5065177865245171 -0.4374415536306864
0.5064506696742372 -0.22382195074802608
0.5065925000531056 -0.010332816198651638
0.6457260996924717 -0.010481904093906973
0.6458231489667781 -0.2238542340860279
0.6457306434420703 -0.4374308197516982
0.645551256008881 -0.6508700696434133
0.645322312952385 -0.8640253113009497
0.6450352023836677 -1.0767897255427372
0.6446469239320533 -1.2890260921621515
0.6440508951726986 -1.5004501415939053
0.643026064603422 -1.7104724357352972
0.6413093723746226 -1.918074749380459
0.638675923344153 -2.121792228315512
0.634971844006798 -2.3197702738853723
0.6300859728689929 -2.509829080607985
0.623904006815642 -2.6895437079648814
0.6163013538548401 -2.856244382594462
0.6071840071801934 -3.007014945118921
0.5965717839948211 -3.138709100317526
0.5846764093577485 -3.2480310580447243
0.5719726126216186 -3.3316938201412003
0.5595314403712316 -3.3868133004033814
0.54955149609698 -3.4115187700723286