# vtk DataFile Version 3.0
Some data
ASCII
DATASET UNSTRUCTURED_GRID
POINTS 861 float
0.0 0.0 0.0
0.4 0.0 0.0
0.8 0.0 0.0
1.2000000000000002 0.0 0.0
1.6 0.0 0.0
2.0 0.0 0.0
2.4000000000000004 0.0 0.0
2.8000000000000003 0.0 0.0
3.2 0.0 0.0
3.6 0.0 0.0
4.0 0.0 0.0
4.4 0.0 0.0
4.800000000000001 0.0 0.0
5.2 0.0 0.0
5.6000000000000005 0.0 0.0
6.0 0.0 0.0
6.4 0.0 0.0
6.800000000000001 0.0 0.0
7.2 0.0 0.0
7.6000000000000005 0.0 0.0
8.0 0.0 0.0
8.4 0.0 0.0
8.8 0.0 0.0
9.200000000000001 0.0 0.0
9.600000000000001 0.0 0.0
10.0 0.0 0.0
10.4 0.0 0.0
10.8 0.0 0.0
11.200000000000001 0.0 0.0
11.600000000000001 0.0 0.0
12.0 0.0 0.0
12.4 0.0 0.0
12.8 0.0 0.0
13.200000000000001 0.0 0.0
13.600000000000001 0.0 0.0
14.0 0.0 0.0
14.4 0.0 0.0
14.8 0.0 0.0
15.200000000000001 0.0 0.0
15.600000000000001 0.0 0.0
16.0 0.0 0.0
0.0 0.1 0.0
0.4 0.1 0.0
0.8 0.1 0.0
1.2000000000000002 0.1 0.0
1.6 0.1 0.0
2.0 0.1 0.0
2.4000000000000004 0.1 0.0
2.8000000000000003 0.1 0.0
3.2 0.1 0.0
3.6 0.1 0.0
4.0 0.1 0.0
4.4 0.1 0.0
4.800000000000001 0.1 0.0
5.2 0.1 0.0
5.6000000000000005 0.1 0.0
6.0 0.1 0.0
6.4 0.1 0.0
6.800000000000001 0.1 0.0
7.2 0.1 0.0
7.6000000000000005 0.1 0.0
8.0 0.1 0.0
8.4 0.1 0.0
8.8 0.1 0.0
9.200000000000001 0.1 0.0
9.600000000000001 0.1 0.0
10.0 0.1 0.0
10.4 0.1 0.0
10.8 0.1 0.0
11.200000000000001 0.1 0.0
11.600000000000001 0.1 0.0
12.0 0.1 0.0
12.4 0.1 0.0
12.8 0.1 0.0
13.200000000000001 0.1 0.0
13.600000000000001 0.1 0.0
14.0 0.1 0.0
14.4 0.1 0.0
14.8 0.1 0.0
15.200000000000001 0.1 0.0
15.600000000000001 0.1 0.0
16.0 0.1 0.0
0.0 0.2 0.0
0.4 0.2 0.0
0.8 0.2 0.0
1.2000000000000002 0.2 0.0
1.6 0.2 0.0
2.0 0.2 0.0
2.4000000000000004 0.2 0.0
2.8000000000000003 0.2 0.0
3.2 0.2 0.0
3.6 0.2 0.0
4.0 0.2 0.0
4.4 0.2 0.0
4.800000000000001 0.2 0.0
5.2 0.2 0.0
5.6000000000000005 0.2 0.0
6.0 0.2 0.0
6.4 0.2 0.0
6.800000000000001 0.2 0.0
7.2 0.2 0.0
7.6000000000000005 0.2 0.0
8.0 0.2 0.0
8.4 0.2 0.0
8.8 0.2 0.0
9.200000000000001 0.2 0.0
9.600000000000001 0.2 0.0
10.0 0.2 0.0
10.4 0.2 0.0
10.8 0.2 0.0
11.200000000000001 0.2 0.0
11.600000000000001 0.2 0.0
12.0 0.2 0.0
12.4 0.2 0.0
12.8 0.2 0.0
13.200000000000001 0.2 0.0
13.600000000000001 0.2 0.0
14.0 0.2 0.0
14.4 0.2 0.0
14.8 0.2 0.0
15.200000000000001 0.2 0.0
15.600000000000001 0.2 0.0
16.0 0.2 0.0
0.0 0.30000000000000004 0.0
0.4 0.30000000000000004 0.0
0.8 0.30000000000000004 0.0
1.2000000000000002 0.30000000000000004 0.0
1.6 0.30000000000000004 0.0
2.0 0.30000000000000004 0.0
2.4000000000000004 0.30000000000000004 0.0
2.8000000000000003 0.30000000000000004 0.0
3.2 0.30000000000000004 0.0
3.6 0.30000000000000004 0.0
4.0 0.30000000000000004 0.0
4.4 0.30000000000000004 0.0
4.800000000000001 0.30000000000000004 0.0
5.2 0.30000000000000004 0.0
5.6000000000000005 0.30000000000000004 0.0
6.0 0.30000000000000004 0.0
6.4 0.30000000000000004 0.0
6.800000000000001 0.30000000000000004 0.0
7.2 0.30000000000000004 0.0
7.6000000000000005 0.30000000000000004 0.0
8.0 0.30000000000000004 0.0
8.4 0.30000000000000004 0.0
8.8 0.30000000000000004 0.0
9.200000000000001 0.30000000000000004 0.0
9.600000000000001 0.30000000000000004 0.0
10.0 0.30000000000000004 0.0
10.4 0.30000000000000004 0.0
10.8 0.30000000000000004 0.0
11.200000000000001 0.30000000000000004 0.0
11.600000000000001 0.30000000000000004 0.0
12.0 0.30000000000000004 0.0
12.4 0.30000000000000004 0.0
12.8 0.30000000000000004 0.0
13.200000000000001 0.30000000000000004 0.0
13.600000000000001 0.30000000000000004 0.0
14.0 0.30000000000000004 0.0
14.4 0.30000000000000004 0.0
14.8 0.30000000000000004 0.0
15.200000000000001 0.30000000000000004 0.0
15.600000000000001 0.30000000000000004 0.0
16.0 0.30000000000000004 0.0
0.0 0.4 0.0
0.4 0.4 0.0
0.8 0.4 0.0
1.2000000000000002 0.4 0.0
1.6 0.4 0.0
2.0 0.4 0.0
2.4000000000000004 0.4 0.0
2.8000000000000003 0.4 0.0
3.2 0.4 0.0
3.6 0.4 0.0
4.0 0.4 0.0
4.4 0.4 0.0
4.800000000000001 0.4 0.0
5.2 0.4 0.0
5.6000000000000005 0.4 0.0
6.0 0.4 0.0
6.4 0.4 0.0
6.800000000000001 0.4 0.0
7.2 0.4 0.0
7.6000000000000005 0.4 0.0
8.0 0.4 0.0
8.4 0.4 0.0
8.8 0.4 0.0
9.200000000000001 0.4 0.0
9.600000000000001 0.4 0.0
10.0 0.4 0.0
10.4 0.4 0.0
10.8 0.4 0.0
11.200000000000001 0.4 0.0
11.600000000000001 0.4 0.0
12.0 0.4 0.0
12.4 0.4 0.0
12.8 0.4 0.0
13.200000000000001 0.4 0.0
13.600000000000001 0.4 0.0
14.0 0.4 0.0
14.4 0.4 0.0
14.8 0.4 0.0
15.200000000000001 0.4 0.0
15.600000000000001 0.4 0.0
16.0 0.4 0.0
0.0 0.5 0.0
0.4 0.5 0.0
0.8 0.5 0.0
1.2000000000000002 0.5 0.0
1.6 0.5 0.0
2.0 0.5 0.0
2.4000000000000004 0.5 0.0
2.8000000000000003 0.5 0.0
3.2 0.5 0.0
3.6 0.5 0.0
4.0 0.5 0.0
4.4 0.5 0.0
4.800000000000001 0.5 0.0
5.2 0.5 0.0
5.6000000000000005 0.5 0.0
6.0 0.5 0.0
6.4 0.5 0.0
6.800000000000001 0.5 0.0
7.2 0.5 0.0
7.6000000000000005 0.5 0.0
8.0 0.5 0.0
8.4 0.5 0.0
8.8 0.5 0.0
9.200000000000001 0.5 0.0
9.600000000000001 0.5 0.0
10.0 0.5 0.0
10.4 0.5 0.0
10.8 0.5 0.0
11.200000000000001 0.5 0.0
11.600000000000001 0.5 0.0
12.0 0.5 0.0
12.4 0.5 0.0
12.8 0.5 0.0
13.200000000000001 0.5 0.0
13.600000000000001 0.5 0.0
14.0 0.5 0.0
14.4 0.5 0.0
14.8 0.5 0.0
15.200000000000001 0.5 0.0
15.600000000000001 0.5 0.0
16.0 0.5 0.0
0.0 0.6000000000000001 0.0
0.4 0.6000000000000001 0.0
0.8 0.6000000000000001 0.0
1.2000000000000002 0.6000000000000001 0.0
1.6 0.6000000000000001 0.0
2.0 0.6000000000000001 0.0
2.4000000000000004 0.6000000000000001 0.0
2.8000000000000003 0.6000000000000001 0.0
3.2 0.6000000000000001 0.0
3.6 0.6000000000000001 0.0
4.0 0.6000000000000001 0.0
4.4 0.6000000000000001 0.0
4.800000000000001 0.6000000000000001 0.0
5.2 0.6000000000000001 0.0
5.6000000000000005 0.6000000000000001 0.0
6.0 0.6000000000000001 0.0
6.4 0.6000000000000001 0.0
6.800000000000001 0.6000000000000001 0.0
7.2 0.6000000000000001 0.0
7.6000000000000005 0.6000000000000001 0.0
8.0 0.6000000000000001 0.0
8.4 0.6000000000000001 0.0
8.8 0.6000000000000001 0.0
9.200000000000001 0.6000000000000001 0.0
9.600000000000001 0.6000000000000001 0.0
10.0 0.6000000000000001 0.0
10.4 0.6000000000000001 0.0
10.8 0.6000000000000001 0.0
11.200000000000001 0.6000000000000001 0.0
11.600000000000001 0.6000000000000001 0.0
12.0 0.6000000000000001 0.0
12.4 0.6000000000000001 0.0
12.8 0.6000000000000001 0.0
13.200000000000001 0.6000000000000001 0.0
13.600000000000001 0.6000000000000001 0.0
14.0 0.6000000000000001 0.0
14.4 0.6000000000000001 0.0
14.8 0.6000000000000001 0.0
15.200000000000001 0.6000000000000001 0.0
15.600000000000001 0.6000000000000001 0.0
16.0 0.6000000000000001 0.0
0.0 0.7000000000000001 0.0
0.4 0.7000000000000001 0.0
0.8 0.7000000000000001 0.0
1.2000000000000002 0.7000000000000001 0.0
1.6 0.7000000000000001 0.0
2.0 0.7000000000000001 0.0
2.4000000000000004 0.7000000000000001 0.0
2.8000000000000003 0.7000000000000001 0.0
3.2 0.7000000000000001 0.0
3.6 0.7000000000000001 0.0
4.0 0.7000000000000001 0.0
4.4 0.7000000000000001 0.0
4.800000000000001 0.7000000000000001 0.0
5.2 0.7000000000000001 0.0
5.6000000000000005 0.7000000000000001 0.0
6.0 0.7000000000000001 0.0
6.4 0.7000000000000001 0.0
6.800000000000001 0.7000000000000001 0.0
7.2 0.7000000000000001 0.0
7.6000000000000005 0.7000000000000001 0.0
8.0 0.7000000000000001 0.0
8.4 0.7000000000000001 0.0
8.8 0.7000000000000001 0.0
9.200000000000001 0.7000000000000001 0.0
9.600000000000001 0.7000000000000001 0.0
10.0 0.7000000000000001 0.0
10.4 0.7000000000000001 0.0
10.8 0.7000000000000001 0.0
11.200000000000001 0.7000000000000001 0.0
11.600000000000001 0.7000000000000001 0.0
12.0 0.7000000000000001 0.0
12.4 0.7000000000000001 0.0
12.8 0.7000000000000001 0.0
13.200000000000001 0.7000000000000001 0.0
13.600000000000001 0.7000000000000001 0.0
14.0 0.7000000000000001 0.0
14.4 0.7000000000000001 0.0
14.8 0.7000000000000001 0.0
15.200000000000001 0.7000000000000001 0.0
15.600000000000001 0.7000000000000001 0.0
16.0 0.7000000000000001 0.0
0.0 0.8 0.0
0.4 0.8 0.0
0.8 0.8 0.0
1.2000000000000002 0.8 0.0
1.6 0.8 0.0
2.0 0.8 0.0
2.4000000000000004 0.8 0.0
2.8000000000000003 0.8 0.0
3.2 0.8 0.0
3.6 0.8 0.0
4.0 0.8 0.0
4.4 0.8 0.0
4.800000000000001 0.8 0.0
5.2 0.8 0.0
5.6000000000000005 0.8 0.0
6.0 0.8 0.0
6.4 0.8 0.0
6.800000000000001 0.8 0.0
7.2 0.8 0.0
7.6000000000000005 0.8 0.0
8.0 0.8 0.0
8.4 0.8 0.0
8.8 0.8 0.0
9.200000000000001 0.8 0.0
9.600000000000001 0.8 0.0
10.0 0.8 0.0
10.4 0.8 0.0
10.8 0.8 0.0
11.200000000000001 0.8 0.0
11.600000000000001 0.8 0.0
12.0 0.8 0.0
12.4 0.8 0.0
12.8 0.8 0.0
13.200000000000001 0.8 0.0
13.600000000000001 0.8 0.0
14.0 0.8 0.0
14.4 0.8 0.0
14.8 0.8 0.0
15.200000000000001 0.8 0.0
15.600000000000001 0.8 0.0
16.0 0.8 0.0
0.0 0.9 0.0
0.4 0.9 0.0
0.8 0.9 0.0
1.2000000000000002 0.9 0.0
1.6 0.9 0.0
2.0 0.9 0.0
2.4000000000000004 0.9 0.0
2.8000000000000003 0.9 0.0
3.2 0.9 0.0
3.6 0.9 0.0
4.0 0.9 0.0
4.4 0.9 0.0
4.800000000000001 0.9 0.0
5.2 0.9 0.0
5.6000000000000005 0.9 0.0
6.0 0.9 0.0
6.4 0.9 0.0
6.800000000000001 0.9 0.0
7.2 0.9 0.0
7.6000000000000005 0.9 0.0
8.0 0.9 0.0
8.4 0.9 0.0
8.8 0.9 0.0
9.200000000000001 0.9 0.0
9.600000000000001 0.9 0.0
10.0 0.9 0.0
10.4 0.9 0.0
10.8 0.9 0.0
11.200000000000001 0.9 0.0
11.600000000000001 0.9 0.0
12.0 0.9 0.0
12.4 0.9 0.0
12.8 0.9 0.0
13.200000000000001 0.9 0.0
13.600000000000001 0.9 0.0
14.0 0.9 0.0
14.4 0.9 0.0
14.8 0.9 0.0
15.200000000000001 0.9 0.0
15.600000000000001 0.9 0.0
16.0 0.9 0.0
0.0 1.0 0.0
0.4 1.0 0.0
0.8 1.0 0.0
1.2000000000000002 1.0 0.0
1.6 1.0 0.0
2.0 1.0 0.0
2.4000000000000004 1.0 0.0
2.8000000000000003 1.0 0.0
3.2 1.0 0.0
3.6 1.0 0.0
4.0 1.0 0.0
4.4 1.0 0.0
4.800000000000001 1.0 0.0
5.2 1.0 0.0
5.6000000000000005 1.0 0.0
6.0 1.0 0.0
6.4 1.0 0.0
6.800000000000001 1.0 0.0
7.2 1.0 0.0
7.6000000000000005 1.0 0.0
8.0 1.0 0.0
8.4 1.0 0.0
8.8 1.0 0.0
9.200000000000001 1.0 0.0
9.600000000000001 1.0 0.0
10.0 1.0 0.0
10.4 1.0 0.0
10.8 1.0 0.0
11.200000000000001 1.0 0.0
11.600000000000001 1.0 0.0
12.0 1.0 0.0
12.4 1.0 0.0
12.8 1.0 0.0
13.200000000000001 1.0 0.0
13.600000000000001 1.0 0.0
14.0 1.0 0.0
14.4 1.0 0.0
14.8 1.0 0.0
15.200000000000001 1.0 0.0
15.600000000000001 1.0 0.0
16.0 1.0 0.0
0.0 1.1 0.0
0.4 1.1 0.0
0.8 1.1 0.0
1.2000000000000002 1.1 0.0
1.6 1.1 0.0
[...]
POINT_DATA 861
SCALARS Disp float 2
LOOKUP_TABLE default
0.0 0.0
0.0023502781455328543 -0.04295309104388351
0.0041862286238804605 -0.07924689509788538
0.0056589087257648074 -0.1149177135146961
0.0073413873808538385 -0.14990246942417196
0.009364866062808527 -0.18418560622184993
0.011793865657147582 -0.2176032978775302
0.014654280863266188 -0.2499785427783239
0.017954588336879303 -0.281128435339052
0.02169675272052533 -0.310872318771216
0.025880480213585938 -0.33903162833465844
0.030505093493088126 -0.3654294367671902
0.03557017572002579 -0.38988990485062724
0.041076188321302866 -0.41223803633355116
0.04702579760566695 -0.4322990968230326
0.05342630509553675 -0.4498962109259067
0.06029209333215443 -0.4648435048955188
0.0676422075523309 -0.476932298914611
0.0754825631648049 -0.48591327472781337
0.08376214111377794 -0.49149420978260744
0.09231726720314773 -0.4933967317999065
0.10087239329251758 -0.49149420978260744
0.10915197124149056 -0.4859132747278132
0.11699232685396456 -0.4769322989146109
0.12434244107414101 -0.4648435048955186
0.13120822931075865 -0.44989621092590665
0.13760873680062846 -0.4322990968230326
0.14355834608499257 -0.41223803633355116
0.14906435868626966 -0.3898899048506272
0.15412944091320732 -0.3654294367671901
0.15875405419270947 -0.33903162833465844
0.16293778168577006 -0.31087231877121596
0.16667994606941614 -0.2811284353390519
0.16998025354302923 -0.24997854277832385
0.17284066874914783 -0.21760329787753
0.17526966834348687 -0.18418560622185007
0.17729314702544158 -0.149902469424172
0.1789756256805306 -0.11491771351469622
0.18044830578241497 -0.07924689509788532
0.18228425626076256 -0.04295309104388341
0.18463453440629543 0.0
0.010640060807718607 -0.0014595682293737464
0.012103584185300208 -0.042839312651137856
0.013116560018860978 -0.07945299069654595
0.014481137924072652 -0.11506140299219982
0.01597747770663977 -0.15009178373961274
0.017804391125054074 -0.1844111053291425
0.01999351078708267 -0.21787246539792388
0.022569920876622036 -0.25029204966071816
0.025541119620149034 -0.28148687886539286
0.028909412057159373 -0.31127571272773147
0.032674880178346376 -0.339479927742753
0.03683713268319519 -0.36592258432828845
0.04139595612213693 -0.3904278947084915
0.046351897926251336 -0.41282099446519277
0.05170733347584428 -0.4329274584339126
0.057468199582913035 -0.45057097975421395
0.06364525736368855 -0.46556634549538806
0.07025067391377325 -0.4777047179637399
0.07728173741210628 -0.4867336803724225
0.08468525061059143 -0.49235246652836634
0.09231726720314773 -0.49426999809450184
0.09994928379570407 -0.49235246652836634
0.10735279699418918 -0.4867336803724223
0.11438386049252218 -0.47770471796373976
0.12098927704260685 -0.465566345495388
0.12716633482338238 -0.45057097975421384
0.13292720093045116 -0.4329274584339126
0.1382826364800441 -0.4128209944651927
0.14323857828415848 -0.3904278947084914
0.14779740172310024 -0.36592258432828834
0.15195965422794902 -0.33947992774275293
0.15572512234913602 -0.3112757127277314
0.15909341478614636 -0.28148687886539275
0.16206461352967336 -0.25029204966071805
0.16464102361921273 -0.21787246539792368
0.1668301432812413 -0.18441110532914268
0.16865705669965564 -0.1500917837396128
0.17015339648222277 -0.11506140299219995
0.17151797438743444 -0.07945299069654588
0.17253095022099518 -0.042839312651137766
0.1739944735985768 -0.0014595682293737488
0.020555641699282156 -0.0027132974971053286
0.021605363632672413 -0.04275586786226839
0.022150541701429494 -0.07956654646512283
0.023243112632921396 -0.11520128891981611
0.024569965724657344 -0.150255682733528
0.0261867333355234 -0.1846136274040303
0.028134317330517435 -0.2181131319286473
0.0304254465912576 -0.25057269763467277
0.033067338055610254 -0.28180764230601324
0.03606177431943773 -0.3116366811917704
0.03940905907032075 -0.33988105828014253
0.04310899611047158 -0.36636384255994187
0.04716150456650096 -0.39090927726539176
0.051567063412322894 -0.41334259055188555
0.05632747150502389 -0.43348957409136646
0.06144700424682876 -0.45117433200387713
0.0669330848477176 -0.4662121544728384
0.07279321677003943 -0.47839412606186704
0.0790217426093768 -0.48746546343621433
0.08557099335317098 -0.4931183467827259
0.09231726720314773 -0.4950499118288782
0.09906354105312448 -0.49311834678272587
0.10561279179691865 -0.4874654634362142
0.11184131763625603 -0.47839412606186693
0.11770144955857782 -0.46621215447283837
0.12318753015946668 -0.451174332003877
0.12830706290127153 -0.4334895740913664
0.13306747099397256 -0.41334259055188544
0.13747302983979445 -0.39090927726539165
0.14152553829582384 -0.3663638425599417
0.14522547533597466 -0.3398810582801425
0.14857276008685766 -0.31163668119177035
0.15156719635068516 -0.28180764230601324
0.1542090878150378 -0.25057269763467266
0.156500217075778 -0.21811313192864712
0.158447801070772 -0.1846136274040305
0.16006456868163807 -0.15025568273352802
0.161391421773374 -0.11520128891981625
0.1624839927048659 -0.07956654646512278
0.163029170773623 -0.042755867862268294
0.16407889270701323 -0.0027132974971053343
0.030043153972859636 -0.003784850956550779
0.030876986306044178 -0.0427313326320747
0.03116606631170947 -0.07961683287467781
0.03197926846531265 -0.11531686776067362
0.033113832205974573 -0.15039830701986223
0.034520360516980694 -0.18479079450782673
0.036222510047067176 -0.2183254085330458
0.038227778949893945 -0.25082028876876916
0.040540002341889314 -0.2820907359638879
0.04316057516479708 -0.3119552275833613
0.04608970931860003 -0.34023503170809305
0.049327350124080224 -0.36675321146308903
0.05287347598570391 -0.39133402551461105
0.05672838045184946 -0.4138027342318143
0.06089309686803498 -0.43398523749006357
0.0653701050287081 -0.4517059278709847
0.0701639043700177 -0.46678063998625163
0.07527933829554702 -0.47900094489931333
0.08071237908167532 -0.488111035597514
0.08642636556549099 -0.4937972777559622
0.09231726720314772 -0.4957435983107991
0.09820816884080445 -0.49379727775596216
0.10392215532462012 -0.4881110355975139
0.10935519611074844 -0.4790009448993132
0.11447063003627772 -0.4667806399862516
0.11926442937758731 -0.45170592787098457
0.12374143753826049 -0.43398523749006346
0.12790615395444596 -0.4138027342318142
0.1317610584205915 -0.391334025514611
0.1353071842822152 -0.3667532114630889
0.13854482508769542 -0.34023503170809305
0.14147395924149836 -0.31195522758336125
0.1440945320644061 -0.28209073596388784
0.14640675545640147 -0.2508202887687691
0.14841202435922823 -0.2183254085330456
0.1501141738893147 -0.18479079450782687
0.15152070220032085 -0.1503983070198623
0.15265526594098275 -0.11531686776067375
0.15346846809458595 -0.07961683287467776
0.15375754810025122 -0.04273133263207459
0.15459138043343576 -0.003784850956550786
0.03925714233800667 -0.00469752109243831
0.039960915053635394 -0.04276269088012761
0.04011361938268655 -0.07963093580190944
0.04068672521750675 -0.11540228018766642
0.04161604114047159 -0.15051840397548769
0.042809931719514915 -0.18494248881558947
0.044265086988436654 -0.21850885483881125
0.04598356242921255 -0.2510347999066703
0.04796590160658509 -0.28233612072381326
0.050212535173545264 -0.3122313589543213
0.0527235277731568 -0.340541851522176
0.05549886786818528 -0.3670906885807463
0.058538543659522164 -0.39170211556107315
0.06184258348319935 -0.41420135702557437
0.06541115665107741 -0.43441430576307305
0.06924493371817524 -0.45216555578520223
0.07334592588042389 -0.4672716871768483
0.07771795375379295 -0.47952569420832686
0.08236213171834206 -0.48867253628768514
0.08725686385006501 -0.49439378633703746
0.09231726720314772 -0.49635699598397043
0.09737767055623045 -0.4943937863370374
0.10227240268795336 -0.4886725362876851
0.1069165806525025 -0.47952569420832675
0.11128860852587154 -0.4672716871768482
0.11538960068812017 -0.4521655557852022
0.11922337775521806 -0.43441430576307294
0.12279195092309605 -0.41420135702557426
0.12609599074677325 -0.3917021155610731
0.12913566653811012 -0.36709068858074617
0.13191100663313862 -0.3405418515221759
0.13442199923275014 -0.31223135895432125
0.1366686327997103 -0.28233612072381314
0.13865097197708287 -0.25103479990667027
0.14036944741785876 -0.21850885483881102
0.1418246026867805 -0.1849424888155896
0.1430184932658238 -0.1505184039754877
0.14394780918878866 -0.11540228018766654
0.14452091502360884 -0.07963093580190937
0.14467361935266002 -0.0427626908801275
0.14537739206828873 -0.004697521092438317
0.04828638568589826 -0.005472725993046578
0.0488979610268469 -0.042837076287176784
0.04897862902431053 -0.07962758264673102
0.049357594757477176 -0.11545899750972613
0.05008218357935213 -0.15061452660640748
0.051060995471218666 -0.1850686530300761
0.05226849724798165 -0.21866326724159169
0.053699541123520295 -0.25121615623408755
0.05535176319699231 -0.2825437800576809
0.057224381227262436 -0.3124650696697514
0.059317209486210686 -0.3408015186779511
0.06163022937850291 -0.3673762691798879
0.06416339490418563 -0.3920135296490536
0.06691643277320165 -0.4145384161954259
0.06988863038650721 -0.4347767008694689
0.07307892360884241 -0.45255311801038417
0.07648721338470395 -0.4676853009935677
0.08011746529891757 -0.47996887028550445
0.0839784666696174 -0.48915171466364826
0.08806695101692019 -0.49491162223161717
0.0923172672031477 -0.4968952118484968
0.09656758338937527 -0.4949116222316171
0.10065606773667801 -0.4891517146636482
0.10451706910737786 -0.47996887028550433
0.1081473210215915 -0.4676853009935676
0.11155561079745299 -0.4525531180103841
0.11474590401978825 -0.43477670086946874
0.11771810163309378 -0.4145384161954258
0.12047113950210976 -0.3920135296490535
0.1230043050277925 -0.3673762691798878
0.1253173249200847 -0.340801518677951
0.12741015317903295 -0.31246506966975135
0.1292827712093031 -0.28254378005768077
0.1309349932827751 -0.25121615623408744
0.13236603715831374 -0.21866326724159152
0.13357353893507676 -0.18506865303007622
0.13455235082694328 -0.15061452660640748
0.1352769396488182 -0.11545899750972625
0.13565590538198485 -0.07962758264673096
0.1357365733794485 -0.04283707628717668
0.13634814872039713 -0.005472725993046587
0.057186245517347065 -0.006129089073579934
0.05772227847101498 -0.042940206992229585
0.057763070512084236 -0.07961792792042596
0.05798731529344873 -0.11549121335216654
0.05851614361569439 -0.15068632647969502
0.05927947195826028 -0.18516918399917298
0.06023908039261639 -0.2187885992034744
0.061382405895809476 -0.25136429944919586
0.06270431029553433 -0.2827136975731045
0.0642028292576299 -0.3126563522382977
0.06587745146567964 -0.34101402970980255
0.06772811893566667 -0.3676099481943269
0.06975472686151558 -0.3922682574862677
0.07195670131834615 -0.4148138961205391
0.07433250272124195 -0.4350724076053761
0.07687947359818705 -0.4528686165701328
0.07959567857777747 -0.46802156174359044
0.08248586311729827 -0.48033085748787924
0.08556810461530362 -0.4895498528200467
0.0888603585238477 -0.49535384575992203
0.09231726720314772 -0.4973627882758356
0.09577417588244776 -0.49535384575992203
0.09906642979099183 -0.48954985282004654
0.10214867128899714 -0.48033085748787907
0.10503885582851798 -0.4680215617435903
0.10775506080810839 -0.4528686165701328
0.1103020316850535 -0.435072407605376
0.11267783308794925 -0.4148138961205389
0.11487980754477983 -0.39226825748626765
0.11690641547062872 -0.36760994819432674
0.11875708294061574 -0.34101402970980255
0.1204317051486655 -0.3126563522382976
0.12193022411076108 -0.2827136975731045
0.12325212851048592 -0.25136429944919575
0.12439545401367902 -0.21878859920347427
0.12535506244803513 -0.1851691839991731
0.12611839079060103 -0.15068632647969502
0.12664721911284668 -0.11549121335216668
0.12687146389421117 -0.07961792792042591
0.1269122559352804 -0.042940206992229474
0.12744828888894832 -0.0061290890735799484
0.06599373587192407 -0.006682267582326555
0.06646145398387543 -0.043059427587699574
0.0664763609795506 -0.07960767097307109
0.06657578008260198 -0.11550349178793075
0.06692142270830718 -0.1507344784988239
0.06747124628684682 -0.18524411447370176
0.06818321986027483 -0.21888488105346768
0.06903879953836364 -0.25147921032692805
0.07003025770677718 -0.2828458576581503
0.07115458877095064 -0.3128051977973578
0.07241094995166693 -0.34117937832296363
0.0737992241652947 -0.36779172070101895
0.07531924177974024 -0.3924662967952739
0.07697016271677166 -0.4150278071948001
0.07874973853554097 -0.43530146895524496
0.08065391818249781 -0.45311214117849297
0.08267908760560203 -0.4682805957925285
0.08483084271069656 -0.4806118706905486
0.08713726587408607 -0.48986770724175566
0.08964029894282159 -0.49572287769436457
0.0923172672031477 -0.4977639264784639
0.09499423546347384 -0.4957228776943645
0.09749726853220934 -0.4898677072417556
0.09980369169559886 -0.48061187069054845
0.10195544680069343 -0.4682805957925284
0.1039806162237976 -0.4531121411784929
0.10588479587075449 -0.43530146895524485
0.10766437168952374 -0.4150278071947999
0.10931529262655518 -0.3924662967952738
0.11083531024100068 -0.36779172070101884
0.11222358445462845 -0.3411793783229636
0.11347994563534476 -0.31280519779735777
0.11460427669951824 -0.28284585765815023
0.11559573486793173 -0.2514792103269279
0.11645131454602058 -0.2188848810534675
0.11716328811944857 -0.18524411447370184
0.11771311169798822 -0.1507344784988239
0.11805875432369342 -0.11550349178793087
0.11815817342674478 -0.07960767097307105
0.11817308042241999 -0.04305942758769946
0.11864079853437133 -0.00668226758232657
0.07473516472852222 -0.0071452327498020595
0.07513776941705816 -0.0431845486639762
0.07513087268363121 -0.07959897539131214
0.07512652535586986 -0.11549975919914182
0.07530203742157769 -0.15076027663638564
0.07564215792372372 -0.1852937016687422
0.07610734688321684 -0.21895220125323572
0.07667535195653023 -0.25156090328444125
0.07733630781971029 -0.2829402501907135
0.07808636458423289 -0.31291159599227614
0.07892439959432421 -0.34129755644629367
0.07985023443335883 -0.3679215823296443
0.08086364295850644 -0.39260765277233584
0.08196358058941179 -0.4151801826639805
0.08314726094633412 -0.43546397904203915
0.08440950034593349 -0.45328385980905594
0.08574507262824534 -0.46846256303624106
0.08715992863824552 -0.48081192654915833
0.08869189923972333 -0.49010545599625854
0.0904096293611077 -0.49602050792823565
0.0923172672031477 -0.4981026964565721
0.09422490504518771 -0.49602050792823554
0.09594263516657206 -0.4901054559962585
0.0974746057680499 -0.4808119265491582
0.0988894617780501 -0.468462563036241
0.10022503406036193 -0.45328385980905583
0.10148727345996132 -0.43546397904203904
0.10267095381688363 -0.41518018266398027
0.10377089144778899 -0.3926076527723357
0.10478429997293656 -0.3679215823296441
0.1057101348119712 -0.34129755644629367
0.10654816982206251 -0.312911595992276
0.10729822658658511 -0.28294025019071345
0.10795918244976517 -0.25156090328444114
0.10852718752307856 -0.2189522012532356
0.10899237648257167 -0.1852937016687423
0.10933249698471771 -0.15076027663638564
0.10950800905042556 -0.11549975919914193
0.1095036617226642 -0.07959897539131208
0.10949676498923724 -0.0431845486639761
0.10989936967777317 -0.007145232749802072
0.0834302829339953 -0.00752874271734668
0.08376949368480933 -0.04330782037244718
0.08373976486991325 -0.07959188846910253
0.08364562863649846 -0.11548299646748349
0.08366288651848325 -0.15076525889927042
0.08379813456873227 -0.18531841154222117
0.08401793388804002 -0.21899070700027132
0.08429870029114514 -0.25160941708789825
0.08462915380879069 -0.2829968718087079
0.08500485642605038 -0.3129755356780458
0.08542449323485653 -0.3413685547619803
0.08588783937854545 -0.3679995294515077
0.08639463136566372 -0.3926923367620603
0.08694370036029256 -0.415271073709208
0.08753193280689169 -0.4355600736333718
0.08815334453226242 -0.4533840113592275
0.08880113859233638 -0.46856766170202285
0.08948059742611116 -0.480930844015721
0.09023791135334493 -0.49026264604478365
0.09117099376682064 -0.4962478554918131
0.0923172672031477 -0.49838325761501145
0.09346354063947476 -0.49624785549181305
0.09439662305295046 -0.4902626460447836
0.09515393698018426 -0.4809308440157209
0.09583339581395904 -0.4685676617020228
0.096481189874033 -0.45338401135922746
0.09710260159940375 -0.4355600736333716
0.09769083404600286 -0.41527107370920774
0.0982399030406317 -0.39269233676206017
0.09874669502774994 -0.3679995294515076
0.09921004117143888 -0.3413685547619803
0.09962967798024502 -0.3129755356780458
0.1000053805975047 -0.2829968718087078
0.10033583411515024 -0.25160941708789814
0.10061660051825538 -0.21899070700027112
0.10083639983756312 -0.18531841154222128
0.10097164788781215 -0.1507652588992704
0.10098890576979694 -0.1154829964674836
0.10089476953638218 -0.07959188846910246
0.10086504072148605 -0.043307820372447084
0.1012042514723001 -0.007528742717346692
0.09209465003093031 -0.00784185631431576
0.09237192207894725 -0.0434236072602935
0.09231598083125932 -0.0795853037105851
0.09214078333287382 -0.11545525995954997
0.09200979422915136 -0.15075094920253024
0.09194532051781328 -0.18531885033278303
0.0919215068882224 -0.2190005989433964
0.09191549684867363 -0.2516248074332454
0.09191548411858491 -0.28301572449919726
0.09191675873084228 -0.3129970055909069
0.09191792158559059 -0.3413923631224354
0.09191872784235848 -0.3680255590719588
0.09191890307576082 -0.3927203644171431
0.09191724391358423 -0.41530054325932964
0.09191054293067336 -0.43558991792877927
0.09189242773857836 -0.45341289843805427
0.09185465425141554 -0.46859614981319236
0.09180039149299397 -0.4809682782909981
0.09178141612011514 -0.49033814101689555
0.09192696984128262 -0.49640526566487503
0.0923172672031477 -0.49861011369954045
0.09270756456501276 -0.496405265664875
0.09285311828618024 -0.4903381410168955
0.09283414291330142 -0.4809682782909981
0.0927798801548799 -0.46859614981319225
0.09274210666771703 -0.4534128984380542
0.09272399147562206 -0.43558991792877916
0.09271729049271119 -0.41530054325932936
0.0927156313305346 -0.392720364417143
0.09271580656393692 -0.36802555907195866
0.09271661282070483 -0.3413923631224355
0.09271777567545313 -0.31299700559090693
0.0927190502877105 -0.28301572449919715
0.09271903755762176 -0.2516248074332453
0.092713027518073 -0.21900059894339619
0.09268921388848211 -0.18531885033278317
0.09262474017714405 -0.15075094920253024
0.09249375107342159 -0.1154552599595501
0.09231855357503607 -0.079585303710585
0.09226261232734814 -0.0434236072602934
0.09253988437536509 -0.007841856314315773
0.10074102197858431 -0.008092414779588058
0.10095813863877487 -0.04352800065898529
0.10087182610049913 -0.07957758135317447
0.10062063148148295 -0.11541783547634162
0.10034940456861371 -0.15071871017205332
0.10009015261331992 -0.18529568356809278
0.0998246670964433 -0.21898211453180016
0.09953241240581955 -0.2516071402202311
0.09920198523341223 -0.28299681318902004
0.09882876085975958 -0.3129759946196547
0.09841137293005962 -0.3413689709518548
0.09794958722585094 -0.36799966849908305
0.09744314759755524 -0.3926917535610668
0.09689090726402472 -0.4152686592192994
0.09628979896714109 -0.4355536914542141
0.09563354898744163 -0.45337087663627296
0.09491281485538182 -0.46854838058629505
0.09412701033533181 -0.4809237967669785
0.09332902663229638 -0.49033007731293227
0.09268025140807797 -0.49649212015542216
0.09231726720314769 -0.4987884283200378
0.09195428299821741 -0.4964921201554221
0.09130550777399901 -0.49033007731293227
0.09050752407096357 -0.48092379676697844
0.08972171955091358 -0.46854838058629505
0.08900098541885376 -0.45337087663627296
0.08834473543915433 -0.435553691454214
0.08774362714227069 -0.4152686592192992
0.0871913868087402 -0.39269175356106667
0.08668494718044446 -0.367999668499083
0.08622316147623578 -0.3413689709518548
0.08580577354653582 -0.31297599461965464
0.08543254917288316 -0.2829968131890199
0.08510212200047587 -0.251607140220231
0.08480986730985209 -0.21898211453179992
0.08454438179297548 -0.18529568356809292
0.08428512983768167 -0.15071871017205332
0.08401390292481244 -0.11541783547634173
0.08376270830579627 -0.0795775813531744
0.08367639576752052 -0.0435280006589852
0.08389351242771109 -0.008092414779588072