# vtk DataFile Version 3.0
Some data
ASCII
DATASET UNSTRUCTURED_GRID
POINTS 861 float
0.0 0.0 0.0
0.4 0.0 0.0
0.8 0.0 0.0
1.2000000000000002 0.0 0.0
1.6 0.0 0.0
2.0 0.0 0.0
2.4000000000000004 0.0 0.0
2.8000000000000003 0.0 0.0
3.2 0.0 0.0
3.6 0.0 0.0
4.0 0.0 0.0
4.4 0.0 0.0
4.800000000000001 0.0 0.0
5.2 0.0 0.0
5.6000000000000005 0.0 0.0
6.0 0.0 0.0
6.4 0.0 0.0
6.800000000000001 0.0 0.0
7.2 0.0 0.0
7.6000000000000005 0.0 0.0
8.0 0.0 0.0
8.4 0.0 0.0
8.8 0.0 0.0
9.200000000000001 0.0 0.0
9.600000000000001 0.0 0.0
10.0 0.0 0.0
10.4 0.0 0.0
10.8 0.0 0.0
11.200000000000001 0.0 0.0
11.600000000000001 0.0 0.0
12.0 0.0 0.0
12.4 0.0 0.0
12.8 0.0 0.0
13.200000000000001 0.0 0.0
13.600000000000001 0.0 0.0
14.0 0.0 0.0
14.4 0.0 0.0
14.8 0.0 0.0
15.200000000000001 0.0 0.0
15.600000000000001 0.0 0.0
16.0 0.0 0.0
0.0 0.1 0.0
0.4 0.1 0.0
0.8 0.1 0.0
1.2000000000000002 0.1 0.0
1.6 0.1 0.0
2.0 0.1 0.0
2.4000000000000004 0.1 0.0
2.8000000000000003 0.1 0.0
3.2 0.1 0.0
3.6 0.1 0.0
4.0 0.1 0.0
4.4 0.1 0.0
4.800000000000001 0.1 0.0
5.2 0.1 0.0
5.6000000000000005 0.1 0.0
6.0 0.1 0.0
6.4 0.1 0.0
6.800000000000001 0.1 0.0
7.2 0.1 0.0
7.6000000000000005 0.1 0.0
8.0 0.1 0.0
8.4 0.1 0.0
8.8 0.1 0.0
9.200000000000001 0.1 0.0
9.600000000000001 0.1 0.0
10.0 0.1 0.0
10.4 0.1 0.0
10.8 0.1 0.0
11.200000000000001 0.1 0.0
11.600000000000001 0.1 0.0
12.0 0.1 0.0
12.4 0.1 0.0
12.8 0.1 0.0
13.200000000000001 0.1 0.0
13.600000000000001 0.1 0.0
14.0 0.1 0.0
14.4 0.1 0.0
14.8 0.1 0.0
15.200000000000001 0.1 0.0
15.600000000000001 0.1 0.0
16.0 0.1 0.0
0.0 0.2 0.0
0.4 0.2 0.0
0.8 0.2 0.0
1.2000000000000002 0.2 0.0
1.6 0.2 0.0
2.0 0.2 0.0
2.4000000000000004 0.2 0.0
2.8000000000000003 0.2 0.0
3.2 0.2 0.0
3.6 0.2 0.0
4.0 0.2 0.0
4.4 0.2 0.0
4.800000000000001 0.2 0.0
5.2 0.2 0.0
5.6000000000000005 0.2 0.0
6.0 0.2 0.0
6.4 0.2 0.0
6.800000000000001 0.2 0.0
7.2 0.2 0.0
7.6000000000000005 0.2 0.0
8.0 0.2 0.0
8.4 0.2 0.0
8.8 0.2 0.0
9.200000000000001 0.2 0.0
9.600000000000001 0.2 0.0
10.0 0.2 0.0
10.4 0.2 0.0
10.8 0.2 0.0
11.200000000000001 0.2 0.0
11.600000000000001 0.2 0.0
12.0 0.2 0.0
12.4 0.2 0.0
12.8 0.2 0.0
13.200000000000001 0.2 0.0
13.600000000000001 0.2 0.0
14.0 0.2 0.0
14.4 0.2 0.0
14.8 0.2 0.0
15.200000000000001 0.2 0.0
15.600000000000001 0.2 0.0
16.0 0.2 0.0
0.0 0.30000000000000004 0.0
0.4 0.30000000000000004 0.0
0.8 0.30000000000000004 0.0
1.2000000000000002 0.30000000000000004 0.0
1.6 0.30000000000000004 0.0
2.0 0.30000000000000004 0.0
2.4000000000000004 0.30000000000000004 0.0
2.8000000000000003 0.30000000000000004 0.0
3.2 0.30000000000000004 0.0
3.6 0.30000000000000004 0.0
4.0 0.30000000000000004 0.0
4.4 0.30000000000000004 0.0
4.800000000000001 0.30000000000000004 0.0
5.2 0.30000000000000004 0.0
5.6000000000000005 0.30000000000000004 0.0
6.0 0.30000000000000004 0.0
6.4 0.30000000000000004 0.0
6.800000000000001 0.30000000000000004 0.0
7.2 0.30000000000000004 0.0
7.6000000000000005 0.30000000000000004 0.0
8.0 0.30000000000000004 0.0
8.4 0.30000000000000004 0.0
8.8 0.30000000000000004 0.0
9.200000000000001 0.30000000000000004 0.0
9.600000000000001 0.30000000000000004 0.0
10.0 0.30000000000000004 0.0
10.4 0.30000000000000004 0.0
10.8 0.30000000000000004 0.0
11.200000000000001 0.30000000000000004 0.0
11.600000000000001 0.30000000000000004 0.0
12.0 0.30000000000000004 0.0
12.4 0.30000000000000004 0.0
12.8 0.30000000000000004 0.0
13.200000000000001 0.30000000000000004 0.0
13.600000000000001 0.30000000000000004 0.0
14.0 0.30000000000000004 0.0
14.4 0.30000000000000004 0.0
14.8 0.30000000000000004 0.0
15.200000000000001 0.30000000000000004 0.0
15.600000000000001 0.30000000000000004 0.0
16.0 0.30000000000000004 0.0
0.0 0.4 0.0
0.4 0.4 0.0
0.8 0.4 0.0
1.2000000000000002 0.4 0.0
1.6 0.4 0.0
2.0 0.4 0.0
2.4000000000000004 0.4 0.0
2.8000000000000003 0.4 0.0
3.2 0.4 0.0
3.6 0.4 0.0
4.0 0.4 0.0
4.4 0.4 0.0
4.800000000000001 0.4 0.0
5.2 0.4 0.0
5.6000000000000005 0.4 0.0
6.0 0.4 0.0
6.4 0.4 0.0
6.800000000000001 0.4 0.0
7.2 0.4 0.0
7.6000000000000005 0.4 0.0
8.0 0.4 0.0
8.4 0.4 0.0
8.8 0.4 0.0
9.200000000000001 0.4 0.0
9.600000000000001 0.4 0.0
10.0 0.4 0.0
10.4 0.4 0.0
10.8 0.4 0.0
11.200000000000001 0.4 0.0
11.600000000000001 0.4 0.0
12.0 0.4 0.0
12.4 0.4 0.0
12.8 0.4 0.0
13.200000000000001 0.4 0.0
13.600000000000001 0.4 0.0
14.0 0.4 0.0
14.4 0.4 0.0
14.8 0.4 0.0
15.200000000000001 0.4 0.0
15.600000000000001 0.4 0.0
16.0 0.4 0.0
0.0 0.5 0.0
0.4 0.5 0.0
0.8 0.5 0.0
1.2000000000000002 0.5 0.0
1.6 0.5 0.0
2.0 0.5 0.0
2.4000000000000004 0.5 0.0
2.8000000000000003 0.5 0.0
3.2 0.5 0.0
3.6 0.5 0.0
4.0 0.5 0.0
4.4 0.5 0.0
4.800000000000001 0.5 0.0
5.2 0.5 0.0
5.6000000000000005 0.5 0.0
6.0 0.5 0.0
6.4 0.5 0.0
6.800000000000001 0.5 0.0
7.2 0.5 0.0
7.6000000000000005 0.5 0.0
8.0 0.5 0.0
8.4 0.5 0.0
8.8 0.5 0.0
9.200000000000001 0.5 0.0
9.600000000000001 0.5 0.0
10.0 0.5 0.0
10.4 0.5 0.0
10.8 0.5 0.0
11.200000000000001 0.5 0.0
11.600000000000001 0.5 0.0
12.0 0.5 0.0
12.4 0.5 0.0
12.8 0.5 0.0
13.200000000000001 0.5 0.0
13.600000000000001 0.5 0.0
14.0 0.5 0.0
14.4 0.5 0.0
14.8 0.5 0.0
15.200000000000001 0.5 0.0
15.600000000000001 0.5 0.0
16.0 0.5 0.0
0.0 0.6000000000000001 0.0
0.4 0.6000000000000001 0.0
0.8 0.6000000000000001 0.0
1.2000000000000002 0.6000000000000001 0.0
1.6 0.6000000000000001 0.0
2.0 0.6000000000000001 0.0
2.4000000000000004 0.6000000000000001 0.0
2.8000000000000003 0.6000000000000001 0.0
3.2 0.6000000000000001 0.0
3.6 0.6000000000000001 0.0
4.0 0.6000000000000001 0.0
4.4 0.6000000000000001 0.0
4.800000000000001 0.6000000000000001 0.0
5.2 0.6000000000000001 0.0
5.6000000000000005 0.6000000000000001 0.0
6.0 0.6000000000000001 0.0
6.4 0.6000000000000001 0.0
6.800000000000001 0.6000000000000001 0.0
7.2 0.6000000000000001 0.0
7.6000000000000005 0.6000000000000001 0.0
8.0 0.6000000000000001 0.0
8.4 0.6000000000000001 0.0
8.8 0.6000000000000001 0.0
9.200000000000001 0.6000000000000001 0.0
9.600000000000001 0.6000000000000001 0.0
10.0 0.6000000000000001 0.0
10.4 0.6000000000000001 0.0
10.8 0.6000000000000001 0.0
11.200000000000001 0.6000000000000001 0.0
11.600000000000001 0.6000000000000001 0.0
12.0 0.6000000000000001 0.0
12.4 0.6000000000000001 0.0
12.8 0.6000000000000001 0.0
13.200000000000001 0.6000000000000001 0.0
13.600000000000001 0.6000000000000001 0.0
14.0 0.6000000000000001 0.0
14.4 0.6000000000000001 0.0
14.8 0.6000000000000001 0.0
15.200000000000001 0.6000000000000001 0.0
15.600000000000001 0.6000000000000001 0.0
16.0 0.6000000000000001 0.0
0.0 0.7000000000000001 0.0
0.4 0.7000000000000001 0.0
0.8 0.7000000000000001 0.0
1.2000000000000002 0.7000000000000001 0.0
1.6 0.7000000000000001 0.0
2.0 0.7000000000000001 0.0
2.4000000000000004 0.7000000000000001 0.0
2.8000000000000003 0.7000000000000001 0.0
3.2 0.7000000000000001 0.0
3.6 0.7000000000000001 0.0
4.0 0.7000000000000001 0.0
4.4 0.7000000000000001 0.0
4.800000000000001 0.7000000000000001 0.0
5.2 0.7000000000000001 0.0
5.6000000000000005 0.7000000000000001 0.0
6.0 0.7000000000000001 0.0
6.4 0.7000000000000001 0.0
6.800000000000001 0.7000000000000001 0.0
7.2 0.7000000000000001 0.0
7.6000000000000005 0.7000000000000001 0.0
8.0 0.7000000000000001 0.0
8.4 0.7000000000000001 0.0
8.8 0.7000000000000001 0.0
9.200000000000001 0.7000000000000001 0.0
9.600000000000001 0.7000000000000001 0.0
10.0 0.7000000000000001 0.0
10.4 0.7000000000000001 0.0
10.8 0.7000000000000001 0.0
11.200000000000001 0.7000000000000001 0.0
11.600000000000001 0.7000000000000001 0.0
12.0 0.7000000000000001 0.0
12.4 0.7000000000000001 0.0
12.8 0.7000000000000001 0.0
13.200000000000001 0.7000000000000001 0.0
13.600000000000001 0.7000000000000001 0.0
14.0 0.7000000000000001 0.0
14.4 0.7000000000000001 0.0
14.8 0.7000000000000001 0.0
15.200000000000001 0.7000000000000001 0.0
15.600000000000001 0.7000000000000001 0.0
16.0 0.7000000000000001 0.0
0.0 0.8 0.0
0.4 0.8 0.0
0.8 0.8 0.0
1.2000000000000002 0.8 0.0
1.6 0.8 0.0
2.0 0.8 0.0
2.4000000000000004 0.8 0.0
2.8000000000000003 0.8 0.0
3.2 0.8 0.0
3.6 0.8 0.0
4.0 0.8 0.0
4.4 0.8 0.0
4.800000000000001 0.8 0.0
5.2 0.8 0.0
5.6000000000000005 0.8 0.0
6.0 0.8 0.0
6.4 0.8 0.0
6.800000000000001 0.8 0.0
7.2 0.8 0.0
7.6000000000000005 0.8 0.0
8.0 0.8 0.0
8.4 0.8 0.0
8.8 0.8 0.0
9.200000000000001 0.8 0.0
9.600000000000001 0.8 0.0
10.0 0.8 0.0
10.4 0.8 0.0
10.8 0.8 0.0
11.200000000000001 0.8 0.0
11.600000000000001 0.8 0.0
12.0 0.8 0.0
12.4 0.8 0.0
12.8 0.8 0.0
13.200000000000001 0.8 0.0
13.600000000000001 0.8 0.0
14.0 0.8 0.0
14.4 0.8 0.0
14.8 0.8 0.0
15.200000000000001 0.8 0.0
15.600000000000001 0.8 0.0
16.0 0.8 0.0
0.0 0.9 0.0
0.4 0.9 0.0
0.8 0.9 0.0
1.2000000000000002 0.9 0.0
1.6 0.9 0.0
2.0 0.9 0.0
2.4000000000000004 0.9 0.0
2.8000000000000003 0.9 0.0
3.2 0.9 0.0
3.6 0.9 0.0
4.0 0.9 0.0
4.4 0.9 0.0
4.800000000000001 0.9 0.0
5.2 0.9 0.0
5.6000000000000005 0.9 0.0
6.0 0.9 0.0
6.4 0.9 0.0
6.800000000000001 0.9 0.0
7.2 0.9 0.0
7.6000000000000005 0.9 0.0
8.0 0.9 0.0
8.4 0.9 0.0
8.8 0.9 0.0
9.200000000000001 0.9 0.0
9.600000000000001 0.9 0.0
10.0 0.9 0.0
10.4 0.9 0.0
10.8 0.9 0.0
11.200000000000001 0.9 0.0
11.600000000000001 0.9 0.0
12.0 0.9 0.0
12.4 0.9 0.0
12.8 0.9 0.0
13.200000000000001 0.9 0.0
13.600000000000001 0.9 0.0
14.0 0.9 0.0
14.4 0.9 0.0
14.8 0.9 0.0
15.200000000000001 0.9 0.0
15.600000000000001 0.9 0.0
16.0 0.9 0.0
0.0 1.0 0.0
0.4 1.0 0.0
0.8 1.0 0.0
1.2000000000000002 1.0 0.0
1.6 1.0 0.0
2.0 1.0 0.0
2.4000000000000004 1.0 0.0
2.8000000000000003 1.0 0.0
3.2 1.0 0.0
3.6 1.0 0.0
4.0 1.0 0.0
4.4 1.0 0.0
4.800000000000001 1.0 0.0
5.2 1.0 0.0
5.6000000000000005 1.0 0.0
6.0 1.0 0.0
6.4 1.0 0.0
6.800000000000001 1.0 0.0
7.2 1.0 0.0
7.6000000000000005 1.0 0.0
8.0 1.0 0.0
8.4 1.0 0.0
8.8 1.0 0.0
9.200000000000001 1.0 0.0
9.600000000000001 1.0 0.0
10.0 1.0 0.0
10.4 1.0 0.0
10.8 1.0 0.0
11.200000000000001 1.0 0.0
11.600000000000001 1.0 0.0
12.0 1.0 0.0
12.4 1.0 0.0
12.8 1.0 0.0
13.200000000000001 1.0 0.0
13.600000000000001 1.0 0.0
14.0 1.0 0.0
14.4 1.0 0.0
14.8 1.0 0.0
15.200000000000001 1.0 0.0
15.600000000000001 1.0 0.0
16.0 1.0 0.0
0.0 1.1 0.0
0.4 1.1 0.0
0.8 1.1 0.0
1.2000000000000002 1.1 0.0
1.6 1.1 0.0
[...]
POINT_DATA 861
SCALARS Disp float 2
LOOKUP_TABLE default
0.0 0.0
0.0022520911682867018 -0.07652410934224584
0.0031054004649667213 -0.14850380543398126
0.003779701766239568 -0.22012445336991715
0.004559873953833252 -0.29145241703581026
0.005520946843609675 -0.3624138034161791
0.006802205106433925 -0.4328804479263773
0.008463044488313433 -0.5027237709849581
0.01058152455880743 -0.5717755027719942
0.013268566712357297 -0.6398141184634516
0.016690893846885605 -0.7065383858066876
0.021124553111221325 -0.7715195357058567
0.02700370164779067 -0.8341567122311933
0.034898114127534255 -0.8936754006849039
0.045484959421166746 -0.9491426663253748
0.05945398469450176 -0.9994788858736163
0.07735650221279336 -1.0434602676783054
0.0994220589661156 -1.079733011502365
0.1254020284065124 -1.1069189404619224
0.15451971120387464 -1.1238453703777391
0.18550149924057543 -1.12977916346798
0.21648328727727603 -1.1238453703777245
0.24560097007463672 -1.106918940461891
0.2715809395150308 -1.0797330115023198
0.29364649626834954 -1.0434602676782487
0.31154901378663796 -0.9994788858735533
0.3255180390599698 -0.9491426663253056
0.33610488435359837 -0.8936754006848302
0.3439992968333376 -0.8341567122311171
0.34987844536990265 -0.7715195357057801
0.3543121046342342 -0.7065383858066123
0.35773443176875874 -0.6398141184633794
0.3604214739223056 -0.5717755027719257
0.36253995399279665 -0.502723770984895
0.36420079337467387 -0.43288044792632
0.36548205163749625 -0.36241380341612967
0.3664431245272717 -0.2914524170357686
0.3672232967148649 -0.22012445336988432
0.36789759801613753 -0.1485038054339569
0.3687509073128171 -0.07652410934223075
0.3710029984811033 0.0
0.01911138598442048 -0.0011538992032074694
0.020548535074181785 -0.07651698818146997
0.021019397811267916 -0.14858698023196423
0.02164328814727119 -0.22019382604472643
0.02234145456939919 -0.2915373927291283
0.02319822688641912 -0.362536565887202
0.02433830024902378 -0.4330644791914986
0.025823312035223586 -0.5029800416304354
0.02771962311237203 -0.5721250521354251
0.03012045862448918 -0.6402865605748984
0.03317105902314524 -0.7071821512044285
0.03711007478281553 -0.772416367312
0.04231770387427888 -0.8354287383742475
0.04932649196622461 -0.8954761526897709
0.05876874348781226 -0.9516443276359337
0.07129488076082487 -1.0028404458318405
0.08742123437095914 -1.0477848989057557
0.10736332598676865 -1.0850260361725572
0.130908799711785 -1.113062570988639
0.15736151786236333 -1.1305982790136075
0.1855014992405737 -1.1367656029507403
0.21364148061878385 -1.1305982790135927
0.24009419876936075 -1.1130625709886073
0.2636396724943748 -1.0850260361725113
0.2835817641101816 -1.0477848989056988
0.2997081177203133 -1.002840445831777
0.3122342549933229 -0.9516443276358637
0.3216765065149071 -0.8954761526896964
0.328685294606849 -0.8354287383741705
0.33389292369830853 -0.7724163673119225
0.337831939457975 -0.7071821512043526
0.34088253985662775 -0.6402865605748256
0.3432833753687421 -0.5721250521353561
0.345179686445888 -0.5029800416303717
0.3466646982320857 -0.43306447919144087
0.34780477159468876 -0.3625365658871523
0.3486615439117079 -0.2915373927290866
0.34935971033383545 -0.22019382604469362
0.3499836006698385 -0.1485869802319398
0.3504544634069248 -0.07651698818145494
0.3518916124966847 -0.001153899203206239
0.037711407648407885 -0.0020614039001595674
0.038712588464140454 -0.07649842636253479
0.03897436869314228 -0.1486352166641407
0.0394795867109265 -0.22026010614553557
0.040102960915878845 -0.29161227053664357
0.040864760910505726 -0.36263918345474044
0.041856929501651464 -0.43321936207869965
0.04316572174453838 -0.5031984252673752
0.044840262616077854 -0.5724242121152857
0.046958589201912385 -0.6406917581150663
0.04964393112424183 -0.7077354056725993
0.053101050029134386 -0.7731874939027115
0.05765875567142037 -0.8365261511965651
0.06379278081109523 -0.8970442514675598
0.07209604743893419 -0.9538436296722835
0.08316895867786618 -1.00581964184474
0.097492509031808 -1.0516409593581257
0.1152819714066579 -1.0897679669874691
0.1363741418121328 -1.11858955336137
0.16014870346541302 -1.1366864864257777
0.18550149924057227 -1.1430738149346849
0.21085429501573127 -1.1366864864257629
0.23462885666901007 -1.118589553361338
0.255721027074483 -1.0897679669874227
0.27351048944933076 -1.0516409593580685
0.2878340398032704 -1.0058196418446759
0.2989069510421997 -0.9538436296722131
0.3072102176700356 -0.8970442514674848
0.3133442428097071 -0.8365261511964875
0.31790194845198966 -0.7731874939026334
0.32135906735687886 -0.7077354056725226
0.32404440927920536 -0.6406917581149929
0.32616273586503736 -0.5724242121152163
0.3278372767365746 -0.5031984252673112
0.3291460689794596 -0.4332193620786416
0.33013823757060407 -0.3626391834546906
0.33090003756523034 -0.29161227053660177
0.3315234117701823 -0.22026010614550273
0.33202862978796643 -0.14863521666411633
0.33229041001696846 -0.07649842636251973
0.3332915908326996 -0.0020614039001571405
0.056033457586980355 -0.002788847032146221
0.056769827923943174 -0.07649331723942616
0.05691873049995797 -0.14865884779943656
0.05730282637197728 -0.22031481883916626
0.0578401620241866 -0.291680570662789
0.0585146451993317 -0.36272427148506425
0.059365128669220155 -0.4333442328699772
0.06049306756228571 -0.5033809945655453
0.061946713595328926 -0.5726749187427053
0.06378577869202728 -0.6410323844211883
0.06611307053922803 -0.7082012357936662
0.0690994606577016 -0.7738384472458838
0.07302547841946017 -0.8374559253489544
0.07830808682646427 -0.8983830874738933
0.08547899286157273 -0.9557414723600837
0.095094500709402 -1.0084135491624222
0.10759962449881463 -1.0550227150624212
0.12321158387553649 -1.0939532323504826
0.14182234527516624 -1.1234950484315924
0.16290977486320155 -1.142114516698391
0.18550149924057113 -1.148718799005826
0.20809322361794022 -1.142114516698376
0.2291806532059742 -1.12349504843156
0.24779141460560228 -1.0939532323504357
0.2634033739823223 -1.0550227150623637
0.2759084977717329 -1.0084135491623578
0.2855240056195598 -0.9557414723600128
0.2926949116546657 -0.8983830874738177
0.2979775200616668 -0.8374559253488761
0.30190353782342244 -0.7738384472458051
0.30488992794189307 -0.7082012357935888
0.3072172197890912 -0.6410323844211145
0.30905628488578735 -0.5726749187426355
0.3105099309188286 -0.5033809945654808
0.31163786981189256 -0.4333442328699189
0.3124883532817801 -0.36272427148501435
0.3131628364569247 -0.2916805706627472
0.31370017210913365 -0.2203148188391334
0.3140842679811529 -0.14865884779941224
0.3142331705571678 -0.07649331723941101
0.3149695408941294 -0.0027888470321427525
0.07418769031179318 -0.0033749359495147957
0.07474543215304244 -0.07650495955356287
0.07483274920034223 -0.1486683549606004
0.0751118612879571 -0.22035601417802392
0.07555673213626556 -0.29173972073789145
0.07613817122875301 -0.3627986670931631
0.07686862864052893 -0.4334423775643487
0.07780887744164577 -0.5035282809138515
0.0790420501700567 -0.5728798644795484
0.08060522457394631 -0.6413113655831093
0.0825809517517873 -0.7085840250636128
0.08510892109226245 -0.7743740368750228
0.08842072192243444 -0.8382245666921166
0.09287180254354621 -0.8994995025815062
0.09893239511887796 -0.9573401721648124
0.10709470500177405 -1.0106213501018622
0.11777113332572045 -1.0579266644601073
0.13118544312155594 -1.097575931365011
0.14728560467123525 -1.127773733840012
0.16566672785180558 -1.1468837241718177
0.1855014992405701 -1.153707884516455
0.205336270629334 -1.1468837241718024
0.22371739380990294 -1.1277737338399796
0.23981755535958077 -1.097575931364964
0.2532318651554145 -1.0579266644600493
0.2639082934793592 -1.010621350101797
0.2720706033622533 -0.9573401721647412
0.27813119593758284 -0.8994995025814302
0.28258227655869206 -0.8382245666920379
0.2858940773888615 -0.7743740368749435
0.2884220467293342 -0.7085840250635351
0.2903977739071729 -0.641311365583035
0.2919609483110607 -0.5728798644794781
0.29319412103946985 -0.5035282809137868
0.2941343698405855 -0.4334423775642903
0.2948648272523607 -0.36279866709311315
0.2954462663448477 -0.2917397207378496
0.2958911371931559 -0.220356014177991
0.29617024928077074 -0.14866835496057607
0.2962575663280706 -0.07650495955354764
0.29681530816931884 -0.003374935949510462
0.09222830498948541 -0.0038462752089596657
0.09266062890471179 -0.07653141636623385
0.09271107693213429 -0.14867054662676146
0.09290345619444344 -0.2203846036087642
0.09325506283670419 -0.29178795022470727
0.09373743768596675 -0.3628629835358189
0.09435328807635454 -0.433522437706077
0.09512725779708417 -0.5036386637023241
0.09612966346462128 -0.5730416186348574
0.09742002339767464 -0.6415324639785952
0.09905088021436957 -0.70888774157248
0.10113143235605256 -0.7748003691178837
0.10384763435716433 -0.8388393421895102
0.10749242917713138 -0.9004002222468033
0.11246061592676351 -0.958646176833274
0.11918785003110681 -1.0124454375391834
0.12804120460698892 -1.0603509925665189
0.1392391531096522 -1.1006305875227556
0.15279660103116094 -1.1314191771324036
0.16844011176050844 -1.1509914140507755
0.185501499240569 -1.158043162924932
0.2025628867206289 -1.1509914140507598
0.21820639744997505 -1.1314191771323712
0.23176384537148248 -1.100630587522708
0.24296179387414427 -1.060350992566461
0.25181514845002473 -1.012445437539118
0.25854238255436635 -0.9586461768332025
0.2635105693039967 -0.9004002222467269
0.2671553641239617 -0.8388393421894311
0.2698715661250713 -0.774800369117804
0.27195211826675225 -0.708887741572402
0.2735829750834453 -0.6415324639785206
0.27487333501649713 -0.573041618634787
0.2758757406840329 -0.5036386637022592
0.2766497104047616 -0.43352243770601845
0.2772655607951489 -0.3628629835357689
0.2777479356444111 -0.29178795022466536
0.27809954228667166 -0.22038460360873124
0.27829192154898075 -0.14867054662673712
0.27834236957640324 -0.07653141636621853
0.2787746934916288 -0.003846275208954631
0.11018767109484001 -0.004224393342648413
0.11052742235829618 -0.0765697138127069
0.11055536393626815 -0.1486692695478201
0.11067585609011843 -0.2204022395993428
0.11093688062214993 -0.29182489288051383
0.11131736078260743 -0.362915489726869
0.11181233542897229 -0.4335895556391866
0.11243612689005693 -0.50372270535262
0.11322216223514915 -0.5731599032824873
0.11423329856080013 -0.641699618372342
0.11552640443408796 -0.7091178131977167
0.11717050052001361 -0.7751239453022926
0.11930931945948556 -0.8393084128711059
0.12217190637475588 -0.9010946629714235
0.12607912987155628 -0.9596660888635743
0.13139014997584456 -1.0138915483211206
0.1384314393281335 -1.0622979881685806
0.14741228584691793 -1.1031129904698476
0.15839503146499392 -1.1344231994397092
0.1712523832417588 -1.154430341286179
0.1855014992405678 -1.1617219775058238
0.19975061523937618 -1.154430341286163
0.21260796701613993 -1.1344231994396765
0.2235907126342146 -1.1031129904697998
0.2325715591529978 -1.0622979881685222
0.23961284850528522 -1.013891548321055
0.2449238686095722 -0.9596660888635026
0.2488310921063712 -0.9010946629713468
0.25169367902163986 -0.8393084128710263
0.2538324979611102 -0.7751239453022125
0.2554765940470342 -0.7091178131976383
0.2567696999203206 -0.6416996183722672
0.2577808362459703 -0.5731599032824167
0.2585668715910616 -0.5037227053525549
0.25919066305214566 -0.4335895556391281
0.2596856376985101 -0.3629154897268189
0.26006611785896727 -0.2918248928804719
0.26032714239099863 -0.22040223959930982
0.2604476345448489 -0.14866926954779572
0.26047557612282085 -0.07656971381269152
0.26081532738627644 -0.004224393342642802
0.1280930696919272 -0.004522898741999235
0.12835574104594813 -0.07661686160335882
0.12836954915270063 -0.14866657339459557
0.12842932213727168 -0.22041060166006318
0.12860404727078797 -0.29185059489575077
0.12888143820570544 -0.36295553638462547
0.12925234225748405 -0.433641898353395
0.12972326284508628 -0.5037888218915014
0.13031348722506486 -0.5732434815622262
0.13105641233118637 -0.6418155282586934
0.13201053092153972 -0.7092805154807758
0.13322883229419388 -0.775352670488601
0.13480833009531026 -0.8396415932934844
0.13691567486393993 -0.901593669857453
0.1397926171654339 -0.9604115954587179
0.1437212300027481 -1.014967517498609
0.1489699482941956 -1.0637719157709395
0.15573316641930932 -1.1050231165377258
0.16411922317596575 -1.1367773205101372
0.17413021181786495 -1.1571880236274736
0.18550149924056641 -1.1647363374893074
0.19687278666326755 -1.1571880236274577
0.20688377530516575 -1.1367773205101042
0.215269832061821 -1.1050231165376778
0.22203305018693362 -1.063771915770881
0.22728176847838008 -1.014967517498543
0.23121038131569316 -0.9604115954586461
0.23408732361718612 -0.9015936698573761
0.23619466838581465 -0.8396415932934047
0.23777416618692981 -0.7753526704885206
0.23899246755958278 -0.7092805154806973
0.23994658614993516 -0.6418155282586182
0.24068951125605584 -0.5732434815621554
0.24127973563603383 -0.5037888218914364
0.24175065622363556 -0.43364189835333644
0.24212156027541387 -0.3629555363845754
0.24239895121033117 -0.29185059489570886
0.2425736763438474 -0.22041060166003018
0.24263344932841846 -0.1486665733945712
0.24264725743517093 -0.0766168616033434
0.24290992878919143 -0.004522898741993213
0.14595466796623646 -0.0047598165974841455
0.1461586958175299 -0.07666830738702152
0.14615769091760783 -0.14866349587038208
0.14616577602124547 -0.22041112998378293
0.14625878980514667 -0.2918653981559712
0.14643311937488626 -0.3629826696567834
0.14667761517766978 -0.433679243230334
0.14699254204680648 -0.5038364121519222
0.1473882742932382 -0.5733026206352301
0.1478815480267616 -0.6418912875715612
0.14850795481979792 -0.7093828671341064
0.1493106113792673 -0.7754971977531758
0.15034691191807614 -0.839851626614937
0.15172582062184609 -0.9019121288733682
0.15360872178760443 -0.9608976704945654
0.1561936977921668 -1.0156865950662846
0.15967913507041914 -1.0647816467419384
0.16423965317048844 -1.1063635375353704
0.17001021725614981 -1.1384747792766858
0.17710377687672857 -1.1592481584381815
0.18550149924056492 -1.1670734969747292
0.19389922160440098 -1.1592481584381653
0.20099278122497902 -1.1384747792766525
0.20676334531063942 -1.1063635375353225
0.2113238634107079 -1.0647816467418798
0.21480930068895968 -1.0156865950662184
0.21739427669352127 -0.9608976704944934
0.21927717785927897 -0.9019121288732913
0.2206560865630483 -0.8398516266148571
0.2216923871018564 -0.7754971977530953
0.22249504366132505 -0.7093828671340278
0.22312145045436083 -0.6418912875714861
0.22361472418788375 -0.5733026206351592
0.22401045643431508 -0.503836412151857
0.2243253833034515 -0.43367924323027535
0.22456987910623494 -0.3629826696567333
0.2247442086759744 -0.2918653981559292
0.22483722245987559 -0.2204111299837499
0.22484530756351326 -0.14866349587035765
0.2248443026635912 -0.07666830738700604
0.22504833051488435 -0.004759816597477859
0.16377676718657108 -0.004954988750104076
0.16394223295156996 -0.07671972556349481
0.163925468053457 -0.14866018197020675
0.16388796661784216 -0.22040502083236768
0.16390378110948528 -0.2918697525148964
0.1639760368651683 -0.3629968079268686
0.1640931775975354 -0.43370099385678434
0.1642499546330656 -0.5038650544484141
0.16444799623301382 -0.5733383146842203
0.16469613659891938 -0.6419363602838148
0.16500537873750226 -0.7094403159246238
0.1654078377298251 -0.7755748256267658
0.16592180108298027 -0.8399576343895195
0.16659909458139546 -0.9020719877183057
0.16752642225853423 -0.9611479711498243
0.16880832875466167 -1.016071471859876
0.17056856513265173 -1.0653440991947114
0.1729396612924697 -1.1071463563354464
0.17610191658775248 -1.1395160920312268
0.18022007424247696 -1.1605912004290921
0.18550149924056325 -1.1687132388967378
0.19078292423864934 -1.1605912004290757
0.19490108189337352 -1.139516092031193
0.19806333718865568 -1.1071463563353983
0.2004344333484732 -1.0653440991946526
0.202194669726463 -1.0160714718598098
0.20347657622259013 -0.9611479711497519
0.20440390389972865 -0.9020719877182286
0.20508119739814373 -0.8399576343894396
0.20559516075129863 -0.7755748256266852
0.2059976197436212 -0.709440315924545
0.20630686188220393 -0.6419363602837397
0.20655500224810935 -0.5733383146841494
0.20675304384805748 -0.503865054448349
0.2069098208835876 -0.4337009938567257
0.20702696161595466 -0.3629968079268186
0.2070992173716377 -0.2918697525148544
0.2071150318632809 -0.2204050208323346
0.20707753042766608 -0.14866018197018233
0.20706076552955316 -0.0767197255634793
0.2072262312945519 -0.0049549887500976025
0.1815770147558513 -0.005113799133980003
0.18171031099948953 -0.0767691087286677
0.1816785933766759 -0.14865618459872704
0.18159940727474727 -0.22039315155137582
0.1815421263328086 -0.2918641921499104
0.181513999057126 -0.3629980370767536
0.1815036075624109 -0.43370698273017555
0.18150125973647985 -0.5038743902186005
0.18150151014648935 -0.57335024862573
0.18150207393196266 -0.6419514775342927
0.18150245192568848 -0.7094589384420834
0.18150281453360181 -0.775600369462815
0.1815031581084678 -0.8399908836436799
0.1815024452941023 -0.9021179466194345
0.18150005872945513 -0.9612147318817229
0.18150517358486198 -1.0161756826105124
0.1815540653125292 -1.0655047132785593
0.18174813658686154 -1.1074083448492364
0.18230685771169738 -1.1399352686454112
0.18348720398965904 -1.1612164010748351
0.1855014992405615 -1.169638078808233
0.18751579449146386 -1.161216401074819
0.18869614076942548 -1.1399352686453774
0.1892548618942611 -1.1074083448491885
0.1894489331685935 -1.0655047132785005
0.18949782489626094 -1.0161756826104462
0.1895029397516679 -0.9612147318816506
0.1895005531870209 -0.9021179466193574
0.18949984037265574 -0.8399908836435999
0.189500183947522 -0.7756003694627344
0.18950054655543555 -0.7094589384420046
0.18950092454916156 -0.6419514775342174
0.18950148833463507 -0.5733502486256592
0.1895017387446447 -0.5038743902185352
0.18949939091871373 -0.43370698273011693
0.18948899942399872 -0.36299803707670353
0.18946087214831622 -0.29186419214986836
0.18940359120637773 -0.22039315155134276
0.18932440510444917 -0.1486561845987026
0.18929268748163558 -0.07676910872865213
0.1894259837252737 -0.00511379913397338
0.1993654115554457 -0.005240436328660944
0.19946901436218728 -0.07681454723568536
0.19942213622062246 -0.14865112310824216
0.19930413917458195 -0.22037606473758214
0.1991772982842898 -0.291849285123601
0.19905095307858717 -0.36298657652600386
0.1989140326574228 -0.43369722560903246
0.1987526543901881 -0.50386428174193
0.19855512516366158 -0.5733384843116173
0.19830804834044322 -0.6419365708417465
0.19799953128501918 -0.7094405139258703
0.19759783926050206 -0.7755749895410108
0.19708453288763422 -0.8399575670490392
0.19640617775939861 -0.9020711534641657
0.19547409377835845 -0.9611471980537659
0.19419854684646273 -1.0160781924310611
0.19252840335729862 -1.0653800857321936
0.1905173697005136 -1.1072780912851345
0.1883711899313904 -1.1398587992341855
0.1864702509250531 -1.1612241720048666
0.18550149924055984 -1.1699462735361235
0.1845327475560665 -1.1612241720048504
0.18263180854972919 -1.1398587992341518
0.18048562878060628 -1.1072780912850868
0.17847459512382186 -1.065380085732135
0.17680445163465844 -1.0160781924309952
0.17552890470276325 -0.9611471980536936
0.1745968207217237 -0.9020711534640886
0.1739184655934889 -0.8399575670489592
0.17340515922062177 -0.7755749895409302
0.1730034671961054 -0.7094405139257915
0.17269495014068195 -0.6419365708416713
0.17244787331746408 -0.5733384843115465
0.17225034409093792 -0.5038642817418647
0.17208896582370345 -0.4336972256089739
0.17195204540253933 -0.3629865765259538
0.17182570019683696 -0.291849285123559
0.17169885930654502 -0.2203760647375491
0.17158086226050462 -0.1486511231082177
0.17153398411893986 -0.07681454723566974
0.17163758692568135 -0.005240436328654213
0.21714851038895266 -0.005338778345405671
0.21722422757006193 -0.0768545534789847
0.21716117737669383 -0.14864448834404476
0.21700637778837004 -0.22035414494837072
0.2168130788358822 -0.29182557901220585
0.2165911114596393 -0.36296277285397355
0.21632916413676914 -0.43367192258019394
0.21601043697919325 -0.5038349389473186
0.2156151474005761 -0.5733029536915747