# vtk DataFile Version 3.0
Some data
ASCII
DATASET UNSTRUCTURED_GRID
POINTS 861 float
0.0 0.0 0.0
0.4 0.0 0.0
0.8 0.0 0.0
1.2000000000000002 0.0 0.0
1.6 0.0 0.0
2.0 0.0 0.0
2.4000000000000004 0.0 0.0
2.8000000000000003 0.0 0.0
3.2 0.0 0.0
3.6 0.0 0.0
4.0 0.0 0.0
4.4 0.0 0.0
4.800000000000001 0.0 0.0
5.2 0.0 0.0
5.6000000000000005 0.0 0.0
6.0 0.0 0.0
6.4 0.0 0.0
6.800000000000001 0.0 0.0
7.2 0.0 0.0
7.6000000000000005 0.0 0.0
8.0 0.0 0.0
8.4 0.0 0.0
8.8 0.0 0.0
9.200000000000001 0.0 0.0
9.600000000000001 0.0 0.0
10.0 0.0 0.0
10.4 0.0 0.0
10.8 0.0 0.0
11.200000000000001 0.0 0.0
11.600000000000001 0.0 0.0
12.0 0.0 0.0
12.4 0.0 0.0
12.8 0.0 0.0
13.200000000000001 0.0 0.0
13.600000000000001 0.0 0.0
14.0 0.0 0.0
14.4 0.0 0.0
14.8 0.0 0.0
15.200000000000001 0.0 0.0
15.600000000000001 0.0 0.0
16.0 0.0 0.0
0.0 0.1 0.0
0.4 0.1 0.0
0.8 0.1 0.0
1.2000000000000002 0.1 0.0
1.6 0.1 0.0
2.0 0.1 0.0
2.4000000000000004 0.1 0.0
2.8000000000000003 0.1 0.0
3.2 0.1 0.0
3.6 0.1 0.0
4.0 0.1 0.0
4.4 0.1 0.0
4.800000000000001 0.1 0.0
5.2 0.1 0.0
5.6000000000000005 0.1 0.0
6.0 0.1 0.0
6.4 0.1 0.0
6.800000000000001 0.1 0.0
7.2 0.1 0.0
7.6000000000000005 0.1 0.0
8.0 0.1 0.0
8.4 0.1 0.0
8.8 0.1 0.0
9.200000000000001 0.1 0.0
9.600000000000001 0.1 0.0
10.0 0.1 0.0
10.4 0.1 0.0
10.8 0.1 0.0
11.200000000000001 0.1 0.0
11.600000000000001 0.1 0.0
12.0 0.1 0.0
12.4 0.1 0.0
12.8 0.1 0.0
13.200000000000001 0.1 0.0
13.600000000000001 0.1 0.0
14.0 0.1 0.0
14.4 0.1 0.0
14.8 0.1 0.0
15.200000000000001 0.1 0.0
15.600000000000001 0.1 0.0
16.0 0.1 0.0
0.0 0.2 0.0
0.4 0.2 0.0
0.8 0.2 0.0
1.2000000000000002 0.2 0.0
1.6 0.2 0.0
2.0 0.2 0.0
2.4000000000000004 0.2 0.0
2.8000000000000003 0.2 0.0
3.2 0.2 0.0
3.6 0.2 0.0
4.0 0.2 0.0
4.4 0.2 0.0
4.800000000000001 0.2 0.0
5.2 0.2 0.0
5.6000000000000005 0.2 0.0
6.0 0.2 0.0
6.4 0.2 0.0
6.800000000000001 0.2 0.0
7.2 0.2 0.0
7.6000000000000005 0.2 0.0
8.0 0.2 0.0
8.4 0.2 0.0
8.8 0.2 0.0
9.200000000000001 0.2 0.0
9.600000000000001 0.2 0.0
10.0 0.2 0.0
10.4 0.2 0.0
10.8 0.2 0.0
11.200000000000001 0.2 0.0
11.600000000000001 0.2 0.0
12.0 0.2 0.0
12.4 0.2 0.0
12.8 0.2 0.0
13.200000000000001 0.2 0.0
13.600000000000001 0.2 0.0
14.0 0.2 0.0
14.4 0.2 0.0
14.8 0.2 0.0
15.200000000000001 0.2 0.0
15.600000000000001 0.2 0.0
16.0 0.2 0.0
0.0 0.30000000000000004 0.0
0.4 0.30000000000000004 0.0
0.8 0.30000000000000004 0.0
1.2000000000000002 0.30000000000000004 0.0
1.6 0.30000000000000004 0.0
2.0 0.30000000000000004 0.0
2.4000000000000004 0.30000000000000004 0.0
2.8000000000000003 0.30000000000000004 0.0
3.2 0.30000000000000004 0.0
3.6 0.30000000000000004 0.0
4.0 0.30000000000000004 0.0
4.4 0.30000000000000004 0.0
4.800000000000001 0.30000000000000004 0.0
5.2 0.30000000000000004 0.0
5.6000000000000005 0.30000000000000004 0.0
6.0 0.30000000000000004 0.0
6.4 0.30000000000000004 0.0
6.800000000000001 0.30000000000000004 0.0
7.2 0.30000000000000004 0.0
7.6000000000000005 0.30000000000000004 0.0
8.0 0.30000000000000004 0.0
8.4 0.30000000000000004 0.0
8.8 0.30000000000000004 0.0
9.200000000000001 0.30000000000000004 0.0
9.600000000000001 0.30000000000000004 0.0
10.0 0.30000000000000004 0.0
10.4 0.30000000000000004 0.0
10.8 0.30000000000000004 0.0
11.200000000000001 0.30000000000000004 0.0
11.600000000000001 0.30000000000000004 0.0
12.0 0.30000000000000004 0.0
12.4 0.30000000000000004 0.0
12.8 0.30000000000000004 0.0
13.200000000000001 0.30000000000000004 0.0
13.600000000000001 0.30000000000000004 0.0
14.0 0.30000000000000004 0.0
14.4 0.30000000000000004 0.0
14.8 0.30000000000000004 0.0
15.200000000000001 0.30000000000000004 0.0
15.600000000000001 0.30000000000000004 0.0
16.0 0.30000000000000004 0.0
0.0 0.4 0.0
0.4 0.4 0.0
0.8 0.4 0.0
1.2000000000000002 0.4 0.0
1.6 0.4 0.0
2.0 0.4 0.0
2.4000000000000004 0.4 0.0
2.8000000000000003 0.4 0.0
3.2 0.4 0.0
3.6 0.4 0.0
4.0 0.4 0.0
4.4 0.4 0.0
4.800000000000001 0.4 0.0
5.2 0.4 0.0
5.6000000000000005 0.4 0.0
6.0 0.4 0.0
6.4 0.4 0.0
6.800000000000001 0.4 0.0
7.2 0.4 0.0
7.6000000000000005 0.4 0.0
8.0 0.4 0.0
8.4 0.4 0.0
8.8 0.4 0.0
9.200000000000001 0.4 0.0
9.600000000000001 0.4 0.0
10.0 0.4 0.0
10.4 0.4 0.0
10.8 0.4 0.0
11.200000000000001 0.4 0.0
11.600000000000001 0.4 0.0
12.0 0.4 0.0
12.4 0.4 0.0
12.8 0.4 0.0
13.200000000000001 0.4 0.0
13.600000000000001 0.4 0.0
14.0 0.4 0.0
14.4 0.4 0.0
14.8 0.4 0.0
15.200000000000001 0.4 0.0
15.600000000000001 0.4 0.0
16.0 0.4 0.0
0.0 0.5 0.0
0.4 0.5 0.0
0.8 0.5 0.0
1.2000000000000002 0.5 0.0
1.6 0.5 0.0
2.0 0.5 0.0
2.4000000000000004 0.5 0.0
2.8000000000000003 0.5 0.0
3.2 0.5 0.0
3.6 0.5 0.0
4.0 0.5 0.0
4.4 0.5 0.0
4.800000000000001 0.5 0.0
5.2 0.5 0.0
5.6000000000000005 0.5 0.0
6.0 0.5 0.0
6.4 0.5 0.0
6.800000000000001 0.5 0.0
7.2 0.5 0.0
7.6000000000000005 0.5 0.0
8.0 0.5 0.0
8.4 0.5 0.0
8.8 0.5 0.0
9.200000000000001 0.5 0.0
9.600000000000001 0.5 0.0
10.0 0.5 0.0
10.4 0.5 0.0
10.8 0.5 0.0
11.200000000000001 0.5 0.0
11.600000000000001 0.5 0.0
12.0 0.5 0.0
12.4 0.5 0.0
12.8 0.5 0.0
13.200000000000001 0.5 0.0
13.600000000000001 0.5 0.0
14.0 0.5 0.0
14.4 0.5 0.0
14.8 0.5 0.0
15.200000000000001 0.5 0.0
15.600000000000001 0.5 0.0
16.0 0.5 0.0
0.0 0.6000000000000001 0.0
0.4 0.6000000000000001 0.0
0.8 0.6000000000000001 0.0
1.2000000000000002 0.6000000000000001 0.0
1.6 0.6000000000000001 0.0
2.0 0.6000000000000001 0.0
2.4000000000000004 0.6000000000000001 0.0
2.8000000000000003 0.6000000000000001 0.0
3.2 0.6000000000000001 0.0
3.6 0.6000000000000001 0.0
4.0 0.6000000000000001 0.0
4.4 0.6000000000000001 0.0
4.800000000000001 0.6000000000000001 0.0
5.2 0.6000000000000001 0.0
5.6000000000000005 0.6000000000000001 0.0
6.0 0.6000000000000001 0.0
6.4 0.6000000000000001 0.0
6.800000000000001 0.6000000000000001 0.0
7.2 0.6000000000000001 0.0
7.6000000000000005 0.6000000000000001 0.0
8.0 0.6000000000000001 0.0
8.4 0.6000000000000001 0.0
8.8 0.6000000000000001 0.0
9.200000000000001 0.6000000000000001 0.0
9.600000000000001 0.6000000000000001 0.0
10.0 0.6000000000000001 0.0
10.4 0.6000000000000001 0.0
10.8 0.6000000000000001 0.0
11.200000000000001 0.6000000000000001 0.0
11.600000000000001 0.6000000000000001 0.0
12.0 0.6000000000000001 0.0
12.4 0.6000000000000001 0.0
12.8 0.6000000000000001 0.0
13.200000000000001 0.6000000000000001 0.0
13.600000000000001 0.6000000000000001 0.0
14.0 0.6000000000000001 0.0
14.4 0.6000000000000001 0.0
14.8 0.6000000000000001 0.0
15.200000000000001 0.6000000000000001 0.0
15.600000000000001 0.6000000000000001 0.0
16.0 0.6000000000000001 0.0
0.0 0.7000000000000001 0.0
0.4 0.7000000000000001 0.0
0.8 0.7000000000000001 0.0
1.2000000000000002 0.7000000000000001 0.0
1.6 0.7000000000000001 0.0
2.0 0.7000000000000001 0.0
2.4000000000000004 0.7000000000000001 0.0
2.8000000000000003 0.7000000000000001 0.0
3.2 0.7000000000000001 0.0
3.6 0.7000000000000001 0.0
4.0 0.7000000000000001 0.0
4.4 0.7000000000000001 0.0
4.800000000000001 0.7000000000000001 0.0
5.2 0.7000000000000001 0.0
5.6000000000000005 0.7000000000000001 0.0
6.0 0.7000000000000001 0.0
6.4 0.7000000000000001 0.0
6.800000000000001 0.7000000000000001 0.0
7.2 0.7000000000000001 0.0
7.6000000000000005 0.7000000000000001 0.0
8.0 0.7000000000000001 0.0
8.4 0.7000000000000001 0.0
8.8 0.7000000000000001 0.0
9.200000000000001 0.7000000000000001 0.0
9.600000000000001 0.7000000000000001 0.0
10.0 0.7000000000000001 0.0
10.4 0.7000000000000001 0.0
10.8 0.7000000000000001 0.0
11.200000000000001 0.7000000000000001 0.0
11.600000000000001 0.7000000000000001 0.0
12.0 0.7000000000000001 0.0
12.4 0.7000000000000001 0.0
12.8 0.7000000000000001 0.0
13.200000000000001 0.7000000000000001 0.0
13.600000000000001 0.7000000000000001 0.0
14.0 0.7000000000000001 0.0
14.4 0.7000000000000001 0.0
14.8 0.7000000000000001 0.0
15.200000000000001 0.7000000000000001 0.0
15.600000000000001 0.7000000000000001 0.0
16.0 0.7000000000000001 0.0
0.0 0.8 0.0
0.4 0.8 0.0
0.8 0.8 0.0
1.2000000000000002 0.8 0.0
1.6 0.8 0.0
2.0 0.8 0.0
2.4000000000000004 0.8 0.0
2.8000000000000003 0.8 0.0
3.2 0.8 0.0
3.6 0.8 0.0
4.0 0.8 0.0
4.4 0.8 0.0
4.800000000000001 0.8 0.0
5.2 0.8 0.0
5.6000000000000005 0.8 0.0
6.0 0.8 0.0
6.4 0.8 0.0
6.800000000000001 0.8 0.0
7.2 0.8 0.0
7.6000000000000005 0.8 0.0
8.0 0.8 0.0
8.4 0.8 0.0
8.8 0.8 0.0
9.200000000000001 0.8 0.0
9.600000000000001 0.8 0.0
10.0 0.8 0.0
10.4 0.8 0.0
10.8 0.8 0.0
11.200000000000001 0.8 0.0
11.600000000000001 0.8 0.0
12.0 0.8 0.0
12.4 0.8 0.0
12.8 0.8 0.0
13.200000000000001 0.8 0.0
13.600000000000001 0.8 0.0
14.0 0.8 0.0
14.4 0.8 0.0
14.8 0.8 0.0
15.200000000000001 0.8 0.0
15.600000000000001 0.8 0.0
16.0 0.8 0.0
0.0 0.9 0.0
0.4 0.9 0.0
0.8 0.9 0.0
1.2000000000000002 0.9 0.0
1.6 0.9 0.0
2.0 0.9 0.0
2.4000000000000004 0.9 0.0
2.8000000000000003 0.9 0.0
3.2 0.9 0.0
3.6 0.9 0.0
4.0 0.9 0.0
4.4 0.9 0.0
4.800000000000001 0.9 0.0
5.2 0.9 0.0
5.6000000000000005 0.9 0.0
6.0 0.9 0.0
6.4 0.9 0.0
6.800000000000001 0.9 0.0
7.2 0.9 0.0
7.6000000000000005 0.9 0.0
8.0 0.9 0.0
8.4 0.9 0.0
8.8 0.9 0.0
9.200000000000001 0.9 0.0
9.600000000000001 0.9 0.0
10.0 0.9 0.0
10.4 0.9 0.0
10.8 0.9 0.0
11.200000000000001 0.9 0.0
11.600000000000001 0.9 0.0
12.0 0.9 0.0
12.4 0.9 0.0
12.8 0.9 0.0
13.200000000000001 0.9 0.0
13.600000000000001 0.9 0.0
14.0 0.9 0.0
14.4 0.9 0.0
14.8 0.9 0.0
15.200000000000001 0.9 0.0
15.600000000000001 0.9 0.0
16.0 0.9 0.0
0.0 1.0 0.0
0.4 1.0 0.0
0.8 1.0 0.0
1.2000000000000002 1.0 0.0
1.6 1.0 0.0
2.0 1.0 0.0
2.4000000000000004 1.0 0.0
2.8000000000000003 1.0 0.0
3.2 1.0 0.0
3.6 1.0 0.0
4.0 1.0 0.0
4.4 1.0 0.0
4.800000000000001 1.0 0.0
5.2 1.0 0.0
5.6000000000000005 1.0 0.0
6.0 1.0 0.0
6.4 1.0 0.0
6.800000000000001 1.0 0.0
7.2 1.0 0.0
7.6000000000000005 1.0 0.0
8.0 1.0 0.0
8.4 1.0 0.0
8.8 1.0 0.0
9.200000000000001 1.0 0.0
9.600000000000001 1.0 0.0
10.0 1.0 0.0
10.4 1.0 0.0
10.8 1.0 0.0
11.200000000000001 1.0 0.0
11.600000000000001 1.0 0.0
12.0 1.0 0.0
12.4 1.0 0.0
12.8 1.0 0.0
13.200000000000001 1.0 0.0
13.600000000000001 1.0 0.0
14.0 1.0 0.0
14.4 1.0 0.0
14.8 1.0 0.0
15.200000000000001 1.0 0.0
15.600000000000001 1.0 0.0
16.0 1.0 0.0
0.0 1.1 0.0
0.4 1.1 0.0
0.8 1.1 0.0
1.2000000000000002 1.1 0.0
1.6 1.1 0.0
[...]
POINT_DATA 861
SCALARS Disp float 2
LOOKUP_TABLE default
0.0 0.0
0.00514772626666048 -0.19036220095450573
0.006320233933347106 -0.3724387500630464
0.007073312879616693 -0.5536365141601787
0.008008035539138245 -0.7345120236036562
0.009417191373851832 -0.9147471049962003
0.011763098677534185 -1.0939289770430005
0.015581454596859003 -1.2715479087363413
0.02149343482242244 -1.4469722932993354
0.030172021396269007 -1.619390139861001
0.04229809222839004 -1.7877126860715575
0.05854438430819622 -1.9505034338205522
0.07957155062837191 -2.105978460375596
0.10602041877743301 -2.2520802120036945
0.13851233368617402 -2.3865405507106305
0.17758292199423795 -2.5069279556888966
0.22355645080234088 -2.61070132671808
0.27638707350220315 -2.6952998428101855
0.3355148433261671 -2.7583135149688665
0.39979468606026136 -2.7977203574932514
0.46737333539844733 -2.8121269638565045
0.5349519847366296 -2.797720357493167
0.5992318274707118 -2.7583135149686933
0.658359597294654 -2.695299842809936
0.7111902199944885 -2.610701326717766
0.7571637488025614 -2.5069279556885395
0.7962343371105952 -2.3865405507102375
0.8287262520193059 -2.252080212003279
0.8551751201683366 -2.1059784603751703
0.8762022864884833 -1.9505034338201288
0.8924485785682628 -1.787712686071148
0.904574649400362 -1.6193901398606154
0.9132532359741917 -1.4469722932989786
0.9191652161997426 -1.2715479087360186
0.9229835721190585 -1.0939289770427152
0.9253294794227355 -0.9147471049959578
0.9267386352574467 -0.7345120236034569
0.9276733579169676 -0.5536365141600255
0.9284264368632368 -0.37243875006293803
0.9295989445299222 -0.19036220095444464
0.9347466707965794 0.0
0.0474889735534205 -0.002183504767144472
0.05103240150132425 -0.19056533845366272
0.05165811419496848 -0.37249980542237054
0.05233031476105705 -0.553721016632247
0.053158452844220196 -0.7346343702097607
0.05436761453754046 -0.9149982552608656
0.05639433112198542 -1.0944310609639505
0.0597460211424847 -1.2724437701945979
0.06500667571389424 -1.4484206314604784
0.07279049846682877 -1.621551598505122
0.08370417226424219 -1.7907445173859846
0.09833320912792848 -1.9545600036347268
0.11725577626209806 -2.11121318870195
0.1410569498117578 -2.2586451513171255
0.17030672618262926 -2.3945796971536057
0.20550609859022462 -2.51655367178761
0.24696936778362433 -2.6219585152694753
0.29468133935784935 -2.708128248654668
0.34816697827339144 -2.772517747227093
0.4063648269685149 -2.812949997622738
0.46737333539843695 -2.8277735729141726
0.5283818438283553 -2.8129499976226513
0.5865796925234675 -2.7725177472269165
0.6400653314389905 -2.7081282486544125
0.6877773030131915 -2.621958515269155
0.7292405722065647 -2.5165536717872454
0.7644399446141327 -2.3945796971532065
0.7936897209849769 -2.2586451513167023
0.8174908945346092 -2.111213188701517
0.8364134616687529 -1.9545600036342972
0.8510424985324152 -1.7907445173855696
0.8619561723298087 -1.621551598504732
0.8697399950827279 -1.4484206314601182
0.8750006496541258 -1.2724437701942728
0.8783523396746172 -1.0944310609636638
0.8803790562590577 -0.9149982552606225
0.881588217952376 -0.7346343702095613
0.8824163560355386 -0.5537210166320937
0.883088556601627 -0.3724998054222622
0.883714269295271 -0.19056533845360132
0.8872576972431697 -0.0021835047671420523
0.09408155380289408 -0.00390285382204002
0.09665455019941017 -0.19066387149604885
0.09701646880129648 -0.37253529321924095
0.09756606080312626 -0.5537960395205533
0.09829556439799536 -0.7347344079283994
0.09932534912908737 -0.9151973817753553
0.10103802172493472 -1.0948457327639964
0.1039245874066338 -1.2732092035081048
0.10852320754593649 -1.449684657612637
0.11539233782063853 -1.6234595517087895
0.12506761100132535 -1.7934345975465587
0.13805575977847062 -1.9581655930304844
0.15485526752667308 -2.115869368669385
0.17598092596522125 -2.264490760172381
0.2019556171180308 -2.4017474348040504
0.2332425827332471 -2.5251497417270325
0.27015268700990275 -2.6320311607142
0.31271806961444565 -2.7196329231593164
0.36055089293281706 -2.785284243115009
0.41266489107969145 -2.8266332062342476
0.46737333539842696 -2.841838636806524
0.5220817797171589 -2.8266332062341593
0.5741957778640231 -2.7852842431148286
0.6220286011823773 -2.7196329231590557
0.6645939837868997 -2.6320311607138747
0.7015040880635317 -2.525149741726662
0.7327910536787238 -2.4017474348036445
0.7587657448315089 -2.264490760171952
0.7798914032700329 -2.1158693686689456
0.7966909110182123 -1.958165593030049
0.809679059795336 -1.7934345975461392
0.8193543329760055 -1.6234595517083954
0.8262234632506936 -1.4496846576122737
0.8308220833899858 -1.2732092035077776
0.8337086490716779 -1.0948457327637082
0.8354213216675214 -0.9151973817751116
0.836451106398612 -0.7347344079281999
0.8371806099934808 -0.5537960395204001
0.8377302019953103 -0.3725352932191326
0.8380921205971968 -0.19066387149598713
0.8406651169937078 -0.003902853822035013
0.1402048037165577 -0.005279020784015271
0.1421320069573055 -0.19073047884207323
0.14235376467898475 -0.37255525053306293
0.1427841457905321 -0.5538578172560296
0.14341382690741178 -0.7348187484567631
0.144286696435665 -0.9153512114666275
0.1457029476804006 -1.095175705123469
0.14812803104372088 -1.2738454913168826
0.15206077519270794 -1.4507624842483666
0.15800307740466984 -1.6251103081798048
0.16642359809263613 -1.7957785305391263
0.1777538380904948 -1.9613170538623876
0.19241700986955343 -2.1199444138427856
0.21085607701025105 -2.2696121529377864
0.23353182703775852 -2.408036914107105
0.2608765606915089 -2.532707941975084
0.2932007786426341 -2.640911386746892
0.33058453681131394 -2.7298087511616314
0.372732795306387 -2.7966087595293914
0.4188098659838143 -2.8388000947108156
0.4673733353984173 -2.854389763234079
0.5159368048130167 -2.8388000947107255
0.5620138754904349 -2.7966087595292075
0.604162133985493 -2.7298087511613662
0.6415458921541547 -2.6409113867465615
0.6738701101052593 -2.532707941974708
0.7012148437589885 -2.408036914106694
0.7238905937864745 -2.2696121529373516
0.7423296609271509 -2.1199444138423407
0.7569928327061893 -1.9613170538619467
0.7683230727040294 -1.7957785305387022
0.7767435933919804 -1.6251103081794074
0.7826858956039298 -1.4507624842480007
0.7866186397529077 -1.2738454913165536
0.789043723116222 -1.0951757051231799
0.7904599743609546 -0.9153512114663834
0.7913328438892069 -0.7348187484565634
0.7919625250060861 -0.5538578172558761
0.7923929061176336 -0.3725552505329547
0.7926146638393129 -0.19073047884201116
0.7945418670800563 -0.005279020784007921
0.18605826029636044 -0.006386477104792533
0.18750816704560874 -0.19078371199142086
0.18765312424035266 -0.37256670862207597
0.18798205108730998 -0.5539058754914372
0.1885105193903665 -0.7348898071711879
0.1892431098352671 -0.9154701697630718
0.19039492712182568 -1.0954275971339165
0.19236695302631873 -1.2743549580363887
0.19563734089879026 -1.4516547283382717
0.20064873431688857 -1.626502440407055
0.20780629065348008 -1.7977745776605432
0.21747118589479045 -1.9640127268813425
0.22999101096689956 -2.1234373902698986
0.24573694211432584 -2.274008388203245
0.2651106897813445 -2.41344485089535
0.28849815646814003 -2.539222940449177
0.31620851309606535 -2.648592166712667
0.3483719325561748 -2.7386469288381594
0.38480494232921325 -2.806490556367652
0.42486603825156916 -2.8494725755214345
0.4673733353984079 -2.8654651758472682
0.5098806325452432 -2.849472575521343
0.5499417284675906 -2.806490556367466
0.586374738240616 -2.7386469288378903
0.6185381577007097 -2.6485921667123318
0.6462485143286174 -2.5392229404487963
0.6696359810153947 -2.413444850894934
0.6890097286823949 -2.2740083882028053
0.704755659829803 -2.123437390269449
0.7172754849018949 -1.9640127268808976
0.7269403801431896 -1.7977745776601155
0.7340979364797676 -1.6265024404066546
0.7391093298978553 -1.451654728337903
0.742379717770319 -1.274354958036058
0.7443517436748072 -1.0954275971336265
0.7455035609613635 -0.9154701697628276
0.7462361514062634 -0.7348898071709881
0.7467646197093196 -0.5539058754912839
0.747093546556277 -0.3725667086219678
0.7472385037510209 -0.19078371199135852
0.7486884105002656 -0.006386477104783161
0.23173287606828918 -0.007272320893828352
0.23281298486786772 -0.19082966334458423
0.23291275262033118 -0.3725744792748534
0.23315721055987493 -0.5539412662650252
0.2335838516732072 -0.7349489285890527
0.23418857745589133 -0.915562427629727
0.2351056374508869 -1.0956132058314656
0.23665874502220077 -1.2747420438675654
0.2392712504721299 -1.4523639515911047
0.2433558034908709 -1.627637149955702
0.24925070254548493 -1.799423032695073
0.25724982648849026 -1.9662534425005413
0.26762920177953065 -2.126349545403669
0.28068723960169706 -2.277680698727026
0.2967593344567007 -2.4179725258044362
0.3161927461917905 -2.5446935374121673
0.33927854303904237 -2.655067548713464
0.3661839182727732 -2.7461383176140908
0.3968588166999786 -2.8149256317661098
0.43088928062022397 -2.858660598177606
0.4673733353983983 -2.875087149241844
0.5038573901765695 -2.858660598177513
0.5378878540968072 -2.814925631765921
0.5685627525240018 -2.746138317613818
0.5954681277577193 -2.655067548713125
0.6185539246049562 -2.5446935374117823
0.6379873363400304 -2.4179725258040166
0.654059431195019 -2.2776806987265825
0.6671174690171703 -2.1263495454032153
0.6774968443081963 -1.9662534425000928
0.6854959682511886 -1.7994230326946419
0.6913908673057914 -1.6276371499552988
0.6954754203245235 -1.4523639515907343
0.6980879257744462 -1.2747420438672332
0.6996410333457563 -1.0956132058311752
0.7005580933407503 -0.9155624276294825
0.7011628191234339 -0.734948928588853
0.701589460236766 -0.5539412662648718
0.7018339181763098 -0.37257447927474513
0.7019336859287733 -0.19082966334452167
0.7030137947283487 -0.007272320893817274
0.2772772878104874 -0.007972743232626608
0.27806738529565106 -0.19087036843951571
0.27813711857551887 -0.3725810181996727
0.27830918540049016 -0.5539654183528862
0.2786348523825783 -0.7349961989777909
0.2791176128326571 -0.9156339549276628
0.279825212381923 -1.0957459982887772
0.2809989293186349 -1.27501972681512
0.28298607875343884 -1.4528950453882936
0.2861519277755704 -1.6285180377242623
0.29079324038140103 -1.8007269435483755
0.2971346000307689 -1.96804225956238
0.30538360139513204 -2.128684796083204
0.3157677584899006 -2.28063367398077
0.32855667935786914 -2.421623658341599
0.3440448648727684 -2.5491224973242854
0.3625066590805716 -2.6603358670383406
0.38413423557007553 -2.7522742731459586
0.40899657966658715 -2.8219038368201157
0.4369369646720915 -2.8663615620824636
0.46737333539838843 -2.8832644365437603
0.49780970612468284 -2.866361562082369
0.5257500911301807 -2.8219038368199247
0.5506124352266833 -2.7522742731456833
0.5722400117161766 -2.6603358670379986
0.5907018059239674 -2.549122497323897
0.6061899914388538 -2.4216236583411757
0.6189789123068107 -2.280633673980323
0.6293630694015673 -2.1286847960827475
0.637612070765919 -1.9680422595619287
0.6439534304152763 -1.800726943547942
0.648594743021098 -1.6285180377238568
0.6517605920432225 -1.452895045387922
0.6537477414780215 -1.275019726814787
0.6549214584147307 -1.0957459982884863
0.6556290579639955 -0.9156339549274181
0.6561118184140742 -0.7349961989775912
0.6564374853961621 -0.5539654183527328
0.6566095522211333 -0.37258101819956446
0.6566792855010011 -0.19087036843945301
0.6574693829861624 -0.007972743232614115
0.3227244911256639 -0.008516576974382148
0.3232869858014042 -0.19090751473455048
0.32333275508430137 -0.37258686074166203
0.32343944664970237 -0.5539797199373474
0.32366613379367754 -0.7350308721830765
0.3240256615041645 -0.9156888883709173
0.324548799618033 -1.0958369450103662
0.3253805732374642 -1.275204985173887
0.3267896886711302 -1.4532612247707775
0.32907000033529343 -1.6291520760414069
0.3324728321765017 -1.8016920810407784
0.3371711994178791 -1.9693849901593548
0.3433089346079221 -2.1304499822403837
0.35104359525448886 -2.2828752355628503
0.3605754973246359 -2.424406481994477
0.3721444411552177 -2.5525159089068823
0.38599668672860105 -2.664399501291978
0.40233481765565493 -2.7570491564149235
0.4213274441847051 -2.827409337072717
0.44307482577601803 -2.872558957753324
0.4673733353983782 -2.8899917364417353
0.49167184502073663 -2.8725589577532284
0.5134192266120445 -2.8274093370725244
0.5324118531410875 -2.7570491564146464
0.5487499840681332 -2.6643995012916335
0.5626022296415069 -2.5525159089064906
0.5741711734720788 -2.424406481994051
0.5837030755422173 -2.2828752355624005
0.5914377361887755 -2.130449982239925
0.5975754713788102 -1.969384990158901
0.6022738386201796 -1.801692081040343
0.6056766704613812 -1.6291520760409999
0.6079569821255395 -1.4532612247704044
0.609366097559202 -1.2752049851735532
0.6101978711786313 -1.0958369450100753
0.6107210092924993 -0.9156888883706727
0.611080537002986 -0.7350308721828767
0.6113072241469611 -0.5539797199371939
0.611413915712362 -0.3725868607415538
0.6114596849952592 -0.19090751473448772
0.6120221796709978 -0.008516576974368533
0.36809378913064583 -0.00893151551199996
0.3684864719338423 -0.1909424904550801
0.3685055289223356 -0.372591266115115
0.3685508250920756 -0.5539852527388018
0.3686816232140649 -0.7350524535778992
0.36891353668356924 -0.9157279673198859
0.3692628900845798 -1.095897444118318
0.3697963978822589 -1.2753162880272537
0.3706806124052221 -1.453483450647959
0.3721296715153435 -1.6295550732116
0.3743311826019877 -1.802329008984735
0.3774128087761926 -1.9702914806754148
0.38146383303739323 -2.1316557511672802
0.3865810180390725 -2.284417608635643
0.3928948507966263 -2.4263335895206777
0.4005803011256245 -2.5548847833009565
0.40984755005034235 -2.6672666365162154
0.42091058511305424 -2.7604620906855843
0.4339821946303756 -2.831422709363678
0.44938399957424535 -2.8772211982506377
0.4673733353983677 -2.895248347092902
0.48536267122248905 -2.8772211982505413
0.5007644761663554 -2.831422709363484
0.5138360856836717 -2.7604620906853055
0.5248991207463778 -2.667266636515869
0.5341663696710889 -2.5548847833005635
0.5418518200000808 -2.426333589520249
0.5481656527576291 -2.284417608635192
0.5532828377593029 -2.1316557511668197
0.5573338620204983 -1.9702914806749594
0.560415488194698 -1.8023290089842983
0.5626169992813379 -1.6295550732111916
0.5640660583914561 -1.4534834506475856
0.5649502729144174 -1.2753162880269198
0.5654837807120955 -1.0958974441180267
0.5658331341131057 -0.9157279673196415
0.5660650475826099 -0.7350524535776994
0.566195845704599 -0.5539852527386484
0.566241141874339 -0.37259126611500676
0.5662601988628322 -0.19094249045501735
0.5666528816660278 -0.008931515511985493
0.4133980308784017 -0.009246170867891838
0.41367225967094573 -0.19097717482113888
0.4136609919841173 -0.3725926852460876
0.41364718424336017 -0.5539828146123902
0.4136850568853994 -0.7350610638670292
0.4137876208498335 -0.9157498040887542
0.4139594744856066 -1.0959334801244383
0.41422564829361463 -1.2753747042307266
0.414647549253423 -1.4535909268099794
0.41533690934717576 -1.6297554491344748
0.4163988728071001 -1.8026607981866376
0.4179103021581328 -1.9707808153133366
0.4199098756490168 -2.1323201308944055
0.4224452280808627 -2.285280270358117
0.4255848333450348 -2.4274255054178715
0.42943075873068043 -2.556247701248823
0.43414186928449566 -2.6689517457445717
0.43994053264821714 -2.7625246272844297
0.4470975162339323 -2.8339314513225142
0.45598968081340774 -2.880300082475701
0.4673733353983568 -2.8989912671048996
0.4787569899833056 -2.8803000824756038
0.4876491545627795 -2.8339314513223193
0.49480613814849167 -2.762524627284149
0.5006048015122095 -2.6689517457442244
0.5053159120660217 -2.556247701248428
0.5091618374516642 -2.4274255054174425
0.5123014427158342 -2.285280270357665
0.5148367951476781 -2.132320130893944
0.5168363686385599 -1.9707808153128803
0.5183477979895904 -1.8026607981862002
0.5194097614495127 -1.629755449134066
0.5200991215432642 -1.4535909268096054
0.5205210225030719 -1.2753747042303925
0.5207871963110795 -1.0959334801241472
0.5209590499468524 -0.9157498040885096
0.5210616139112865 -0.7350610638668295
0.5210994865533257 -0.5539828146122368
0.5210856788125685 -0.3725926852459792
0.52107441112574 -0.19097717482107618
0.5213486399182835 -0.009246170867876786
0.4586532323199373 -0.009484482108755654
0.4588440888169436 -0.19101319345372755
0.4588039464570127 -0.37258991134823416
0.45873294860194613 -0.5539729265568424
0.4586807611879063 -0.7350569561459426
0.4586545621895403 -0.915753830962859
0.4586448103927449 -1.0959448142313315
0.45864216023671867 -1.2753936419123073
0.4586416594558995 -1.453622163932312
0.4586418646371204 -1.6298078697142202
0.45864208642175014 -1.8027456345851431
0.45864189451424103 -1.9709070753775704
0.4586382254952051 -2.1324937459531434
0.4586272360048982 -2.285511459518194
0.45861249681021843 -2.4277291408352584
0.4586291947266869 -2.5566480321672933
0.4587857973602957 -2.6694919780608837
0.4593171453325182 -2.763271515047552
0.46058480493172066 -2.83496819292688
0.4629979405792401 -2.881758395296625
0.4673733353983456 -2.9011545829949736
0.4717487302174516 -2.8817583952965276
0.47416186586497067 -2.8349681929266852
0.4754295254641721 -2.7632715150472706
0.47596087343639465 -2.669491978060536
0.47611747607000404 -2.5566480321668985
0.4761341739864731 -2.427729140834829
0.47611943479179425 -2.2855114595177417
0.47610844530148844 -2.132493745952682
0.4761047762824536 -1.9709070753771136
0.4761045843749455 -1.8027456345847053
0.4761048061595758 -1.6298078697138112
0.4761050113407969 -1.4536221639319378
0.4761045105599781 -1.275393641911973
0.47610186040395197 -1.0959448142310402
0.47609210860715667 -0.9157538309626143
0.4760659096087908 -0.735056956145743
0.4760137221947509 -0.5539729265566892
0.4759427243396844 -0.3725899113481258
0.47590258197975355 -0.19101319345366488
0.4760934384767595 -0.009484482108740235
0.5038704567244279 -0.00966819161421025
0.5040043742642629 -0.19104890682229164
0.5039382010058363 -0.37258306476146313
0.5038128072636022 -0.5539557978566473
0.5036733209053611 -0.7350405835461938
0.5035205077652908 -0.9157400536423415
0.5033300929143509 -1.095930846105012
0.5030583514000961 -1.2753741752399654
0.5026356041440293 -1.4535909429669664
0.5019467793184956 -1.6297555001504889
0.5008857087809652 -1.8026609359663535
0.49937356794056453 -1.9707800531103337
0.4973657660393089 -2.1323169141675415
0.4948082876420651 -2.2852738531918413
0.4916408892233761 -2.427422901776064
0.48783108270983466 -2.5562782118592757
0.4834267002112388 -2.6690884521339897
0.4786258663435651 -2.762902176379058
0.4738037617269327 -2.8347146411338526
0.4695256769179726 -2.8817093313686866
0.4673733353983345 -2.901850778204499
0.4652209938786959 -2.881709331368589
0.46094290906973606 -2.8347146411336577
0.45612080445310577 -2.762902176378777
0.4513199705854365 -2.6690884521336433
0.44691558808684523 -2.5562782118588814
0.4431057815733076 -2.427422901775635
0.4399383831546226 -2.28527385319139
0.4373809047573832 -2.132316914167081
0.4353731028561322 -1.9707800531098771
0.4338609620157356 -1.8026609359659163
0.4327998914782083 -1.6297555001500799
0.43211106665267657 -1.4535909429665925
0.43168831939661084 -1.2753741752396313
0.43141657788235666 -1.0959308461047206
0.4312261630314173 -0.9157400536420969
0.43107334989134727 -0.7350405835459942
0.4309338635331062 -0.553955797856494
0.4308084697908721 -0.3725830647613548
0.43074229653244567 -0.19104890682222897
0.4308762140722805 -0.009668191614194622
0.5490646266105016 -0.009809632557731093
0.5491576446964549 -0.19108232033894262
0.5490680256090593 -0.3725724852207077
0.5488914764369239 -0.5539317259079474
0.5486681232826359 -0.7350125492029518
0.5483916736162263 -0.915708798635634
0.5480251959177836 -1.0958922113134835
0.5474868473812646 -1.2753152049127114
0.5466021605223891 -1.4534835152938834
0.5451543423532706 -1.629555347120454
0.5429535615871097 -1.8023291357289117
0.5398705046712808 -1.9702896355209725
0.5358120508548904 -2.131648888883812
0.5306757838692233 -2.284404466290062
0.5243379311560479 -2.4263284279245005
0.5166864309299575 -2.554946798275013
0.507700824642109 -2.6675392480612348
0.4975374972679509 -2.761201476526172