# vtk DataFile Version 3.0
Some data
ASCII
DATASET UNSTRUCTURED_GRID
POINTS 861 float
0.0 0.0 0.0
0.4 0.0 0.0
0.8 0.0 0.0
1.2000000000000002 0.0 0.0
1.6 0.0 0.0
2.0 0.0 0.0
2.4000000000000004 0.0 0.0
2.8000000000000003 0.0 0.0
3.2 0.0 0.0
3.6 0.0 0.0
4.0 0.0 0.0
4.4 0.0 0.0
4.800000000000001 0.0 0.0
5.2 0.0 0.0
5.6000000000000005 0.0 0.0
6.0 0.0 0.0
6.4 0.0 0.0
6.800000000000001 0.0 0.0
7.2 0.0 0.0
7.6000000000000005 0.0 0.0
8.0 0.0 0.0
8.4 0.0 0.0
8.8 0.0 0.0
9.200000000000001 0.0 0.0
9.600000000000001 0.0 0.0
10.0 0.0 0.0
10.4 0.0 0.0
10.8 0.0 0.0
11.200000000000001 0.0 0.0
11.600000000000001 0.0 0.0
12.0 0.0 0.0
12.4 0.0 0.0
12.8 0.0 0.0
13.200000000000001 0.0 0.0
13.600000000000001 0.0 0.0
14.0 0.0 0.0
14.4 0.0 0.0
14.8 0.0 0.0
15.200000000000001 0.0 0.0
15.600000000000001 0.0 0.0
16.0 0.0 0.0
0.0 0.1 0.0
0.4 0.1 0.0
0.8 0.1 0.0
1.2000000000000002 0.1 0.0
1.6 0.1 0.0
2.0 0.1 0.0
2.4000000000000004 0.1 0.0
2.8000000000000003 0.1 0.0
3.2 0.1 0.0
3.6 0.1 0.0
4.0 0.1 0.0
4.4 0.1 0.0
4.800000000000001 0.1 0.0
5.2 0.1 0.0
5.6000000000000005 0.1 0.0
6.0 0.1 0.0
6.4 0.1 0.0
6.800000000000001 0.1 0.0
7.2 0.1 0.0
7.6000000000000005 0.1 0.0
8.0 0.1 0.0
8.4 0.1 0.0
8.8 0.1 0.0
9.200000000000001 0.1 0.0
9.600000000000001 0.1 0.0
10.0 0.1 0.0
10.4 0.1 0.0
10.8 0.1 0.0
11.200000000000001 0.1 0.0
11.600000000000001 0.1 0.0
12.0 0.1 0.0
12.4 0.1 0.0
12.8 0.1 0.0
13.200000000000001 0.1 0.0
13.600000000000001 0.1 0.0
14.0 0.1 0.0
14.4 0.1 0.0
14.8 0.1 0.0
15.200000000000001 0.1 0.0
15.600000000000001 0.1 0.0
16.0 0.1 0.0
0.0 0.2 0.0
0.4 0.2 0.0
0.8 0.2 0.0
1.2000000000000002 0.2 0.0
1.6 0.2 0.0
2.0 0.2 0.0
2.4000000000000004 0.2 0.0
2.8000000000000003 0.2 0.0
3.2 0.2 0.0
3.6 0.2 0.0
4.0 0.2 0.0
4.4 0.2 0.0
4.800000000000001 0.2 0.0
5.2 0.2 0.0
5.6000000000000005 0.2 0.0
6.0 0.2 0.0
6.4 0.2 0.0
6.800000000000001 0.2 0.0
7.2 0.2 0.0
7.6000000000000005 0.2 0.0
8.0 0.2 0.0
8.4 0.2 0.0
8.8 0.2 0.0
9.200000000000001 0.2 0.0
9.600000000000001 0.2 0.0
10.0 0.2 0.0
10.4 0.2 0.0
10.8 0.2 0.0
11.200000000000001 0.2 0.0
11.600000000000001 0.2 0.0
12.0 0.2 0.0
12.4 0.2 0.0
12.8 0.2 0.0
13.200000000000001 0.2 0.0
13.600000000000001 0.2 0.0
14.0 0.2 0.0
14.4 0.2 0.0
14.8 0.2 0.0
15.200000000000001 0.2 0.0
15.600000000000001 0.2 0.0
16.0 0.2 0.0
0.0 0.30000000000000004 0.0
0.4 0.30000000000000004 0.0
0.8 0.30000000000000004 0.0
1.2000000000000002 0.30000000000000004 0.0
1.6 0.30000000000000004 0.0
2.0 0.30000000000000004 0.0
2.4000000000000004 0.30000000000000004 0.0
2.8000000000000003 0.30000000000000004 0.0
3.2 0.30000000000000004 0.0
3.6 0.30000000000000004 0.0
4.0 0.30000000000000004 0.0
4.4 0.30000000000000004 0.0
4.800000000000001 0.30000000000000004 0.0
5.2 0.30000000000000004 0.0
5.6000000000000005 0.30000000000000004 0.0
6.0 0.30000000000000004 0.0
6.4 0.30000000000000004 0.0
6.800000000000001 0.30000000000000004 0.0
7.2 0.30000000000000004 0.0
7.6000000000000005 0.30000000000000004 0.0
8.0 0.30000000000000004 0.0
8.4 0.30000000000000004 0.0
8.8 0.30000000000000004 0.0
9.200000000000001 0.30000000000000004 0.0
9.600000000000001 0.30000000000000004 0.0
10.0 0.30000000000000004 0.0
10.4 0.30000000000000004 0.0
10.8 0.30000000000000004 0.0
11.200000000000001 0.30000000000000004 0.0
11.600000000000001 0.30000000000000004 0.0
12.0 0.30000000000000004 0.0
12.4 0.30000000000000004 0.0
12.8 0.30000000000000004 0.0
13.200000000000001 0.30000000000000004 0.0
13.600000000000001 0.30000000000000004 0.0
14.0 0.30000000000000004 0.0
14.4 0.30000000000000004 0.0
14.8 0.30000000000000004 0.0
15.200000000000001 0.30000000000000004 0.0
15.600000000000001 0.30000000000000004 0.0
16.0 0.30000000000000004 0.0
0.0 0.4 0.0
0.4 0.4 0.0
0.8 0.4 0.0
1.2000000000000002 0.4 0.0
1.6 0.4 0.0
2.0 0.4 0.0
2.4000000000000004 0.4 0.0
2.8000000000000003 0.4 0.0
3.2 0.4 0.0
3.6 0.4 0.0
4.0 0.4 0.0
4.4 0.4 0.0
4.800000000000001 0.4 0.0
5.2 0.4 0.0
5.6000000000000005 0.4 0.0
6.0 0.4 0.0
6.4 0.4 0.0
6.800000000000001 0.4 0.0
7.2 0.4 0.0
7.6000000000000005 0.4 0.0
8.0 0.4 0.0
8.4 0.4 0.0
8.8 0.4 0.0
9.200000000000001 0.4 0.0
9.600000000000001 0.4 0.0
10.0 0.4 0.0
10.4 0.4 0.0
10.8 0.4 0.0
11.200000000000001 0.4 0.0
11.600000000000001 0.4 0.0
12.0 0.4 0.0
12.4 0.4 0.0
12.8 0.4 0.0
13.200000000000001 0.4 0.0
13.600000000000001 0.4 0.0
14.0 0.4 0.0
14.4 0.4 0.0
14.8 0.4 0.0
15.200000000000001 0.4 0.0
15.600000000000001 0.4 0.0
16.0 0.4 0.0
0.0 0.5 0.0
0.4 0.5 0.0
0.8 0.5 0.0
1.2000000000000002 0.5 0.0
1.6 0.5 0.0
2.0 0.5 0.0
2.4000000000000004 0.5 0.0
2.8000000000000003 0.5 0.0
3.2 0.5 0.0
3.6 0.5 0.0
4.0 0.5 0.0
4.4 0.5 0.0
4.800000000000001 0.5 0.0
5.2 0.5 0.0
5.6000000000000005 0.5 0.0
6.0 0.5 0.0
6.4 0.5 0.0
6.800000000000001 0.5 0.0
7.2 0.5 0.0
7.6000000000000005 0.5 0.0
8.0 0.5 0.0
8.4 0.5 0.0
8.8 0.5 0.0
9.200000000000001 0.5 0.0
9.600000000000001 0.5 0.0
10.0 0.5 0.0
10.4 0.5 0.0
10.8 0.5 0.0
11.200000000000001 0.5 0.0
11.600000000000001 0.5 0.0
12.0 0.5 0.0
12.4 0.5 0.0
12.8 0.5 0.0
13.200000000000001 0.5 0.0
13.600000000000001 0.5 0.0
14.0 0.5 0.0
14.4 0.5 0.0
14.8 0.5 0.0
15.200000000000001 0.5 0.0
15.600000000000001 0.5 0.0
16.0 0.5 0.0
0.0 0.6000000000000001 0.0
0.4 0.6000000000000001 0.0
0.8 0.6000000000000001 0.0
1.2000000000000002 0.6000000000000001 0.0
1.6 0.6000000000000001 0.0
2.0 0.6000000000000001 0.0
2.4000000000000004 0.6000000000000001 0.0
2.8000000000000003 0.6000000000000001 0.0
3.2 0.6000000000000001 0.0
3.6 0.6000000000000001 0.0
4.0 0.6000000000000001 0.0
4.4 0.6000000000000001 0.0
4.800000000000001 0.6000000000000001 0.0
5.2 0.6000000000000001 0.0
5.6000000000000005 0.6000000000000001 0.0
6.0 0.6000000000000001 0.0
6.4 0.6000000000000001 0.0
6.800000000000001 0.6000000000000001 0.0
7.2 0.6000000000000001 0.0
7.6000000000000005 0.6000000000000001 0.0
8.0 0.6000000000000001 0.0
8.4 0.6000000000000001 0.0
8.8 0.6000000000000001 0.0
9.200000000000001 0.6000000000000001 0.0
9.600000000000001 0.6000000000000001 0.0
10.0 0.6000000000000001 0.0
10.4 0.6000000000000001 0.0
10.8 0.6000000000000001 0.0
11.200000000000001 0.6000000000000001 0.0
11.600000000000001 0.6000000000000001 0.0
12.0 0.6000000000000001 0.0
12.4 0.6000000000000001 0.0
12.8 0.6000000000000001 0.0
13.200000000000001 0.6000000000000001 0.0
13.600000000000001 0.6000000000000001 0.0
14.0 0.6000000000000001 0.0
14.4 0.6000000000000001 0.0
14.8 0.6000000000000001 0.0
15.200000000000001 0.6000000000000001 0.0
15.600000000000001 0.6000000000000001 0.0
16.0 0.6000000000000001 0.0
0.0 0.7000000000000001 0.0
0.4 0.7000000000000001 0.0
0.8 0.7000000000000001 0.0
1.2000000000000002 0.7000000000000001 0.0
1.6 0.7000000000000001 0.0
2.0 0.7000000000000001 0.0
2.4000000000000004 0.7000000000000001 0.0
2.8000000000000003 0.7000000000000001 0.0
3.2 0.7000000000000001 0.0
3.6 0.7000000000000001 0.0
4.0 0.7000000000000001 0.0
4.4 0.7000000000000001 0.0
4.800000000000001 0.7000000000000001 0.0
5.2 0.7000000000000001 0.0
5.6000000000000005 0.7000000000000001 0.0
6.0 0.7000000000000001 0.0
6.4 0.7000000000000001 0.0
6.800000000000001 0.7000000000000001 0.0
7.2 0.7000000000000001 0.0
7.6000000000000005 0.7000000000000001 0.0
8.0 0.7000000000000001 0.0
8.4 0.7000000000000001 0.0
8.8 0.7000000000000001 0.0
9.200000000000001 0.7000000000000001 0.0
9.600000000000001 0.7000000000000001 0.0
10.0 0.7000000000000001 0.0
10.4 0.7000000000000001 0.0
10.8 0.7000000000000001 0.0
11.200000000000001 0.7000000000000001 0.0
11.600000000000001 0.7000000000000001 0.0
12.0 0.7000000000000001 0.0
12.4 0.7000000000000001 0.0
12.8 0.7000000000000001 0.0
13.200000000000001 0.7000000000000001 0.0
13.600000000000001 0.7000000000000001 0.0
14.0 0.7000000000000001 0.0
14.4 0.7000000000000001 0.0
14.8 0.7000000000000001 0.0
15.200000000000001 0.7000000000000001 0.0
15.600000000000001 0.7000000000000001 0.0
16.0 0.7000000000000001 0.0
0.0 0.8 0.0
0.4 0.8 0.0
0.8 0.8 0.0
1.2000000000000002 0.8 0.0
1.6 0.8 0.0
2.0 0.8 0.0
2.4000000000000004 0.8 0.0
2.8000000000000003 0.8 0.0
3.2 0.8 0.0
3.6 0.8 0.0
4.0 0.8 0.0
4.4 0.8 0.0
4.800000000000001 0.8 0.0
5.2 0.8 0.0
5.6000000000000005 0.8 0.0
6.0 0.8 0.0
6.4 0.8 0.0
6.800000000000001 0.8 0.0
7.2 0.8 0.0
7.6000000000000005 0.8 0.0
8.0 0.8 0.0
8.4 0.8 0.0
8.8 0.8 0.0
9.200000000000001 0.8 0.0
9.600000000000001 0.8 0.0
10.0 0.8 0.0
10.4 0.8 0.0
10.8 0.8 0.0
11.200000000000001 0.8 0.0
11.600000000000001 0.8 0.0
12.0 0.8 0.0
12.4 0.8 0.0
12.8 0.8 0.0
13.200000000000001 0.8 0.0
13.600000000000001 0.8 0.0
14.0 0.8 0.0
14.4 0.8 0.0
14.8 0.8 0.0
15.200000000000001 0.8 0.0
15.600000000000001 0.8 0.0
16.0 0.8 0.0
0.0 0.9 0.0
0.4 0.9 0.0
0.8 0.9 0.0
1.2000000000000002 0.9 0.0
1.6 0.9 0.0
2.0 0.9 0.0
2.4000000000000004 0.9 0.0
2.8000000000000003 0.9 0.0
3.2 0.9 0.0
3.6 0.9 0.0
4.0 0.9 0.0
4.4 0.9 0.0
4.800000000000001 0.9 0.0
5.2 0.9 0.0
5.6000000000000005 0.9 0.0
6.0 0.9 0.0
6.4 0.9 0.0
6.800000000000001 0.9 0.0
7.2 0.9 0.0
7.6000000000000005 0.9 0.0
8.0 0.9 0.0
8.4 0.9 0.0
8.8 0.9 0.0
9.200000000000001 0.9 0.0
9.600000000000001 0.9 0.0
10.0 0.9 0.0
10.4 0.9 0.0
10.8 0.9 0.0
11.200000000000001 0.9 0.0
11.600000000000001 0.9 0.0
12.0 0.9 0.0
12.4 0.9 0.0
12.8 0.9 0.0
13.200000000000001 0.9 0.0
13.600000000000001 0.9 0.0
14.0 0.9 0.0
14.4 0.9 0.0
14.8 0.9 0.0
15.200000000000001 0.9 0.0
15.600000000000001 0.9 0.0
16.0 0.9 0.0
0.0 1.0 0.0
0.4 1.0 0.0
0.8 1.0 0.0
1.2000000000000002 1.0 0.0
1.6 1.0 0.0
2.0 1.0 0.0
2.4000000000000004 1.0 0.0
2.8000000000000003 1.0 0.0
3.2 1.0 0.0
3.6 1.0 0.0
4.0 1.0 0.0
4.4 1.0 0.0
4.800000000000001 1.0 0.0
5.2 1.0 0.0
5.6000000000000005 1.0 0.0
6.0 1.0 0.0
6.4 1.0 0.0
6.800000000000001 1.0 0.0
7.2 1.0 0.0
7.6000000000000005 1.0 0.0
8.0 1.0 0.0
8.4 1.0 0.0
8.8 1.0 0.0
9.200000000000001 1.0 0.0
9.600000000000001 1.0 0.0
10.0 1.0 0.0
10.4 1.0 0.0
10.8 1.0 0.0
11.200000000000001 1.0 0.0
11.600000000000001 1.0 0.0
12.0 1.0 0.0
12.4 1.0 0.0
12.8 1.0 0.0
13.200000000000001 1.0 0.0
13.600000000000001 1.0 0.0
14.0 1.0 0.0
14.4 1.0 0.0
14.8 1.0 0.0
15.200000000000001 1.0 0.0
15.600000000000001 1.0 0.0
16.0 1.0 0.0
0.0 1.1 0.0
0.4 1.1 0.0
0.8 1.1 0.0
1.2000000000000002 1.1 0.0
1.6 1.1 0.0
[...]
POINT_DATA 861
SCALARS Disp float 2
LOOKUP_TABLE default
0.0 0.0
0.0035254172182992696 -0.06442963656582525
0.006279342935820672 -0.11887034264682808
0.008488363088647189 -0.17237657027204417
0.01101208107128073 -0.22485370413625794
0.014047299094212776 -0.276278409332775
0.017690798485721363 -0.3264049468162953
0.021981421294899266 -0.37496781416748604
0.026931882505318947 -0.4216926530085781
0.03254512908078797 -0.4663084781568243
0.038820720320378914 -0.5085474425019879
0.04575764023963219 -0.5481441551507854
0.05335526358003867 -0.5848348572759412
0.06161428248195431 -0.6183570545003271
0.07053869640850038 -0.6484486452345491
0.08013945764330516 -0.6748443163888603
0.0904381399982317 -0.6972652573432783
0.1014633113284964 -0.7153984483719166
0.11322384474720737 -0.72886991209172
0.12564321167066683 -0.7372413146739113
0.13847590080472155 -0.7400950976998599
0.1513085899387763 -0.7372413146739114
0.16372795686223585 -0.7288699120917201
0.17548849028094685 -0.7153984483719166
0.1865136616112115 -0.6972652573432783
0.196812343966138 -0.6748443163888603
0.2064131052009428 -0.6484486452345491
0.21533751912748897 -0.618357054500327
0.22359653802940452 -0.5848348572759409
0.23119416136981108 -0.5481441551507852
0.23813108128906427 -0.5085474425019878
0.24440667252865514 -0.46630847815682397
0.2500199191041242 -0.421692653008578
0.2549703803145439 -0.37496781416748604
0.25926100312372186 -0.32640494681629506
0.26290450251523034 -0.2762784093327752
0.26593972053816245 -0.22485370413625802
0.26846343852079596 -0.17237657027204434
0.27067245867362255 -0.11887034264682798
0.2734263843911439 -0.06442963656582505
0.2769518016094432 0.0
0.015960091211577897 -0.0021893523440606197
0.018155376277950303 -0.06425896897670678
0.01967484002829145 -0.11917948604481893
0.021721706886108954 -0.17259210448829973
0.023966216559959647 -0.22513767560941916
0.026706586687581108 -0.2766166579937138
0.029990266180623993 -0.3268086980968859
0.03385488131493304 -0.37543807449107736
0.03831167943022356 -0.42223031829808944
0.043364118085739055 -0.4669135690915974
0.049012320267519546 -0.5092198916141296
0.055255699024792784 -0.5488838764924329
0.06209393418320541 -0.5856418420627374
0.06952784688937699 -0.6192314916977895
0.0775610002137664 -0.6493911876508692
0.08620229937436953 -0.6758564696313212
0.09546788604553288 -0.6983495182430822
0.10537601087065993 -0.71655707694561
0.11592260611815945 -0.7301005205586337
0.1270278759158871 -0.7385286997925496
0.13847590080472155 -0.741404997141753
0.1499239256935561 -0.7385286997925498
0.16102919549128375 -0.7301005205586338
0.1715757907387833 -0.7165570769456099
0.1814839155639103 -0.6983495182430822
0.19074950223507361 -0.6758564696313212
0.19939080139567678 -0.6493911876508691
0.20742395472006622 -0.6192314916977893
0.2148578674262378 -0.5856418420627373
0.22169610258465045 -0.5488838764924326
0.22793948134192363 -0.5092198916141294
0.2335876835237041 -0.46691356909159726
0.2386401221792196 -0.4222303182980893
0.2430969202945101 -0.37543807449107736
0.24696153542881916 -0.3268086980968856
0.250245214921862 -0.27661665799371404
0.2529855850494835 -0.22513767560941922
0.2552300947233342 -0.17259210448829995
0.2572769615811517 -0.11917948604481883
0.2587964253314929 -0.06425896897670659
0.2609917103978653 -0.002189352344060624
0.030833462548923215 -0.004069946245657988
0.03240804544900862 -0.0641338017934026
0.03322581255214423 -0.11934981969768425
0.034864668949382074 -0.17280193337972422
0.03685494858698602 -0.22538352410029205
0.03928010000328511 -0.2769204411060456
0.042201475995776144 -0.32716969789297107
0.04563816988688639 -0.3758590464520093
0.049601007083415395 -0.42271146345902
0.0540926614791566 -0.46745502178765574
0.05911358860548112 -0.5098215874202139
0.06466349416570735 -0.5495457638399129
0.07074225684975145 -0.5863639158980878
0.07735059511848433 -0.6200138858278286
0.08449120725753582 -0.6502343611370499
0.09217050637024313 -0.676761498005816
0.10039962727157639 -0.6993182317092577
0.10918982515505916 -0.7175911890928007
0.11853261391406521 -0.7311981951543216
0.12835649002975646 -0.7396775201740889
0.13847590080472158 -0.7425748677433176
0.1485953115796867 -0.739677520174089
0.15841918769537797 -0.7311981951543216
0.16776197645438404 -0.7175911890928007
0.1765521743378668 -0.6993182317092578
0.18478129523920003 -0.676761498005816
0.19246059435190735 -0.6502343611370499
0.19960120649095886 -0.6200138858278283
0.20620954475969172 -0.5863639158980877
0.21228830744373584 -0.5495457638399127
0.21783821300396206 -0.5098215874202138
0.22285914013028657 -0.4674550217876556
0.22735079452602777 -0.42271146345901994
0.23131363172255678 -0.3758590464520092
0.23475032561366702 -0.3271696978929708
0.23767170160615805 -0.27692044110604574
0.24009685302245717 -0.22538352410029208
0.24208713266006107 -0.1728019333797244
0.24372598905729895 -0.11934981969768414
0.24454375616043456 -0.0641338017934024
0.24611833906051991 -0.004069946245657997
0.04506473095928945 -0.005677276434826157
0.046315479459066264 -0.06409699894811206
0.0467490994675642 -0.11942524931201674
0.04796890269796897 -0.17297530164101046
0.049670748308961864 -0.22559746052979343
0.05178054077547104 -0.2771861917617401
0.05433376507060075 -0.3274881127995688
0.057341668424840925 -0.3762304331531539
0.06081000351283398 -0.42313610394583195
0.06474086274719561 -0.4679328413750421
0.06913456397790003 -0.5103525475621397
0.07399102518612033 -0.5501298171946336
0.07931021397855588 -0.5870010382719167
0.08509257067777419 -0.6207041013477216
0.09133964530205246 -0.6509778562350955
0.09805515754306215 -0.6775588918064771
0.10524585655502652 -0.7001709599793776
0.11291900744332052 -0.7185014173489701
0.12106856862251299 -0.7321665533962711
0.1296395483482365 -0.7406959166339435
0.13847590080472158 -0.7436153974661989
0.14731225326120664 -0.7406959166339435
0.15588323298693021 -0.7321665533962711
0.16403279416612265 -0.7185014173489702
0.17170594505441664 -0.7001709599793776
0.178896644066381 -0.6775588918064771
0.1856121563073907 -0.6509778562350954
0.19185923093166898 -0.6207041013477215
0.1976415876308873 -0.5870010382719167
0.20296077642332283 -0.5501298171946335
0.20781723763154314 -0.5103525475621397
0.21221093886224757 -0.467932841375042
0.2161417980966092 -0.4231361039458319
0.21961013318460224 -0.3762304331531538
0.2226180365388424 -0.3274881127995685
0.2251712608339721 -0.27718619176174036
0.22728105330048132 -0.22559746052979346
0.2289828989114742 -0.17297530164101066
0.23020270214187896 -0.11942524931201662
0.23063632215037688 -0.06409699894811187
0.2318870706501537 -0.0056772764348261675
0.05888571350701 -0.0070462816386574504
0.05994137258045308 -0.06414403632019143
0.06017042907402983 -0.11944640370286418
0.06103008782626013 -0.17310342028149966
0.06242406171070739 -0.2257776059632316
0.06421489757927237 -0.2774137332233843
0.066397630482655 -0.327763282258217
0.06897534364381884 -0.3765521998600056
0.07194885240987763 -0.42350418108571997
0.0753188027603179 -0.46834703843148207
0.0790852916597352 -0.510812777283264
0.08324830180227795 -0.5506360328711195
0.08780781548928322 -0.58755317334161
0.09276387522479904 -0.6213020355383617
0.09811673497661609 -0.6516214586446099
0.10386740057726286 -0.6782483336778035
0.11001888882063583 -0.7009075307652727
0.1165769306306894 -0.7192885413124904
0.1235431975775131 -0.7330088044315279
0.1308852957750975 -0.7415906795055563
0.13847590080472158 -0.7445354939759559
0.14606650583434566 -0.7415906795055563
0.1534086040319301 -0.7330088044315279
0.16037487097875375 -0.7192885413124904
0.16693291278880734 -0.7009075307652726
0.17308440103218029 -0.6782483336778035
0.17883506663282706 -0.6516214586446097
0.18418792638464418 -0.6213020355383616
0.1891439861201599 -0.5875531733416098
0.19370349980716522 -0.5506360328711195
0.19786650994970795 -0.5108127772832641
0.20163299884912525 -0.46834703843148195
0.20500294919956552 -0.4235041810857199
0.20797645796562433 -0.37655219986000554
0.21055417112678818 -0.3277632822582167
0.21273690403017076 -0.2774137332233845
0.21452773989873578 -0.22577760596323163
0.21592171378318303 -0.17310342028149986
0.21678137253541335 -0.11944640370286404
0.21701042902899007 -0.06414403632019124
0.21806608810243314 -0.007046281638657468
0.07242957852884739 -0.00820908898956986
0.07334694154027036 -0.06425561443076518
0.0734679435364658 -0.11944137397009655
0.07403639213621575 -0.17318849626458926
0.07512327536902821 -0.22592178990961126
0.076591493206828 -0.27760297954511426
0.07840274587197249 -0.3279949008623876
0.08054931168528044 -0.37682423435113144
0.08302764479548845 -0.42381567008652143
0.08583657184089365 -0.46869760450462716
0.08897581422931604 -0.5112022780169267
0.0924453440677544 -0.5510644037698319
0.0962450923562784 -0.5880202944735805
0.1003746491598025 -0.621807624293139
0.1048329455797608 -0.6521650513042034
0.10961838541326362 -0.6788296770155765
0.1147308200770559 -0.7015279514903516
0.12017619794837633 -0.7199533054282568
0.12596770000442611 -0.7337275719954727
0.13210042652538026 -0.7423674333474259
0.13847590080472158 -0.7453428177727454
0.14485137508406293 -0.7423674333474259
0.15098410160501705 -0.7337275719954727
0.15677560366106683 -0.7199533054282568
0.16222098153238726 -0.7015279514903516
0.1673334161961795 -0.6788296770155764
0.17211885602968235 -0.6521650513042034
0.1765771524496407 -0.6218076242931388
0.1807067092531647 -0.5880202944735805
0.18450645754168876 -0.5510644037698319
0.1879759873801271 -0.5112022780169267
0.1911152297685495 -0.46869760450462716
0.19392415681395467 -0.4238156700865214
0.1964024899241627 -0.37682423435113127
0.1985490557374707 -0.32799490086238736
0.20036030840261518 -0.2776029795451144
0.20182852624041495 -0.2259217899096113
0.2029154094732274 -0.17318849626458943
0.20348385807297736 -0.11944137397009642
0.20360486006917278 -0.064255614430765
0.2045222230805957 -0.008209088989569872
0.08577936827602059 -0.009193633610369891
0.08658341770652246 -0.06441031048834439
0.08664460576812635 -0.11942689188063896
0.0869809729401731 -0.17323682002824986
0.0877742154235416 -0.22602948971954256
0.08891920793739043 -0.27775377599875956
0.09035862058892459 -0.32818289880521173
0.09207360884371422 -0.3770464491737939
0.09405646544330148 -0.42407054635965685
0.09630424388644487 -0.4689845283574466
0.0988161771985195 -0.5115210445647039
0.10159217840350002 -0.5514149222914905
0.10463209029227334 -0.5884023862294018
0.10793505197751926 -0.6222208441808088
0.11149875408186294 -0.6526086114080644
0.11531921039728056 -0.6793029248551994
0.11939351786666617 -0.7020323426153858
0.12372879467594741 -0.7204962862318189
0.12835215692295543 -0.7343247792300702
0.13329053778577155 -0.7430307686398833
0.13847590080472158 -0.7460441824137537
0.14366126382367167 -0.7430307686398833
0.14859964468648776 -0.7343247792300702
0.15322300693349575 -0.7204962862318189
0.15755828374277697 -0.7020323426153857
0.1616325912121626 -0.6793029248551994
0.16545304752758022 -0.6526086114080643
0.1690167496319239 -0.6222208441808086
0.17231971131716978 -0.5884023862294017
0.17535962320594314 -0.5514149222914904
0.17813562441092365 -0.511521044564704
0.18064755772299826 -0.46898452835744653
0.18289533616614165 -0.42407054635965685
0.18487819276572892 -0.3770464491737938
0.18659318102051856 -0.3281828988052115
0.18803259367205272 -0.2777537759987597
0.18917758618590155 -0.2260294897195426
0.18997082866927006 -0.17323682002825005
0.19030719584131678 -0.11942689188063882
0.19036838390292066 -0.0644103104883442
0.19117243333342254 -0.009193633610369904
0.09899060380788612 -0.01002340137348982
0.09969218097581314 -0.06458914138154938
0.09971454146932592 -0.11941150645960667
0.09986367012390297 -0.17325523768189616
0.1003821340624608 -0.2261017177482359
0.10120686943027025 -0.2778661717105527
0.10227482979041226 -0.3283273215802016
0.10355819930754549 -0.3772188154903921
0.10504538656016575 -0.42426878648722555
0.10673188315642598 -0.46920779669603685
0.10861642492750043 -0.5117690674844455
0.11069883624794208 -0.5516875810515286
0.11297886266961035 -0.588699445192911
0.11545524407515752 -0.6225417107922004
0.11812460780331145 -0.6529522034328676
0.12098087727374672 -0.6796682117677396
0.12401863140840301 -0.7024208936887929
0.12724626406604483 -0.7209178060358231
0.13070589881112912 -0.7348015608626337
0.1344604484142324 -0.7435843165415471
0.1384759008047216 -0.7466458897176961
0.14249135319521078 -0.743584316541547
0.14624590279831404 -0.7348015608626336
0.14970553754339833 -0.720917806035823
0.15293317020104014 -0.7024208936887929
0.15597092433569645 -0.6796682117677396
0.1588271938061317 -0.6529522034328675
0.1614965575342856 -0.6225417107922002
0.16397293893983275 -0.588699445192911
0.16625296536150108 -0.5516875810515284
0.1683353766819427 -0.5117690674844455
0.17021991845301715 -0.46920779669603674
0.1719064150492774 -0.4242687864872255
0.17339360230189765 -0.37721881549039205
0.1746769718190309 -0.3283273215802014
0.1757449321791729 -0.2778661717105529
0.17656966754698236 -0.22610171774823593
0.17708813148554015 -0.17325523768189632
0.1772372601401172 -0.11941150645960655
0.17725962063363 -0.06458914138154918
0.177961197801557 -0.010023401373489836
0.11210274709278335 -0.010717849124703074
0.11270665412558724 -0.06477682299596431
0.11269630902544683 -0.11939846308696823
0.11268978803380478 -0.17324963879871277
0.11295305613236654 -0.2261404149545785
0.11346323688558563 -0.2779405525031134
0.11416102032482527 -0.3284283018798537
0.11501302793479536 -0.377341354926662
0.11600446172956544 -0.42441037528607045
0.11712954687634936 -0.46936739398841426
0.11838659939148631 -0.5119463346694405
0.11977535165003826 -0.5518823734944664
0.12129546443775965 -0.588911479158504
0.12294537088411768 -0.622770273995971
0.1247208914195012 -0.6531959685630588
0.12661425051890024 -0.679925789713584
0.12861760894236798 -0.7026938445543618
0.1307398929573683 -0.7212178898237376
0.13303784885958503 -0.7351581839943881
0.13561444404166156 -0.7440307618923536
0.13847590080472158 -0.7471540446848584
0.14133735756778157 -0.7440307618923535
0.14391395274985813 -0.735158183994388
0.14621190865207487 -0.7212178898237376
0.14833419266707515 -0.7026938445543618
0.15033755109054292 -0.679925789713584
0.15223091018994198 -0.6531959685630587
0.15400643072532544 -0.6227702739959707
0.15565633717168345 -0.5889114791585038
0.15717644995940488 -0.5518823734944664
0.1585652022179568 -0.5119463346694407
0.1598222547330938 -0.4693673939884142
0.16094733987987767 -0.4244103752860704
0.1619387736746478 -0.37734135492666193
0.16279078128461788 -0.32842830187985345
0.16348856472385753 -0.2779405525031135
0.1639987454770766 -0.2261404149545785
0.16426201357563835 -0.17324963879871294
0.1642554925839963 -0.11939846308696812
0.16424514748385588 -0.06477682299596411
0.16484905451665977 -0.010717849124703095
0.125145424400993 -0.011293114076019998
0.12565424052721402 -0.06496173055867079
0.12560964730486984 -0.11938783270365382
0.1254684429547477 -0.17322449470122525
0.1254943297777249 -0.22614788834890565
0.1256972018530984 -0.27797761731333187
0.12602690083206003 -0.3284860605004071
0.12644805043671775 -0.37741412563184745
0.12694373071318604 -0.424495307713062
0.12750728463907557 -0.46946330351706883
0.12813673985228477 -0.5120528321429706
0.12883175906781819 -0.5519992941772617
0.1295919470484956 -0.5890385051430906
0.13041555054043882 -0.6229066105638122
0.1312978992103375 -0.6533401104500578
0.13223001679839363 -0.6800760170388415
0.13320170788850455 -0.7028514925530344
0.1342208961391667 -0.7213962660235818
0.13535686703001742 -0.7353939690671758
0.136756490650231 -0.7443717832377199
0.13847590080472158 -0.7475748864225173
0.14019531095921217 -0.7443717832377198
0.14159493457942576 -0.7353939690671756
0.1427309054702764 -0.7213962660235816
0.14375009372093858 -0.7028514925530344
0.14472178481104947 -0.6800760170388414
0.14565390239910564 -0.6533401104500577
0.14653625106900428 -0.622906610563812
0.14735985456094752 -0.5890385051430905
0.14812004254162492 -0.5519992941772616
0.14881506175715833 -0.5120528321429707
0.14944451697036754 -0.46946330351706883
0.1500080708962571 -0.424495307713062
0.1505037511727254 -0.3774141256318474
0.15092490077738313 -0.3284860605004068
0.15125459975634475 -0.277977617313332
0.15145747183171826 -0.22614788834890565
0.15148335865469542 -0.17322449470122542
0.15134215430457326 -0.11938783270365372
0.1512975610822291 -0.06496173055867059
0.1518063772084501 -0.01129311407602002
0.1381419750463955 -0.011762784471473614
0.13855788311842088 -0.06513541089044024
0.13847397124688898 -0.11937795556587764
0.13821117499931074 -0.17318288993932499
0.13801469134372704 -0.2261264238037954
0.13791798077671996 -0.27797827549917464
0.1378822603323336 -0.3285008984150948
0.13787324527301048 -0.37743721114986817
0.13787322617787737 -0.4245235867487959
0.1378751380962634 -0.4694955083863605
0.13787688237838588 -0.5120885446836533
0.13787809176353774 -0.5520383386079383
0.13787835461364126 -0.5890805466257147
0.13787586587037637 -0.6229508148889945
0.13786581439601003 -0.653384876893169
0.13783864160786755 -0.6801193476570816
0.1377819813771233 -0.7028942247197887
0.137700587239491 -0.7214524174364976
0.13767212418017277 -0.7355072115253435
0.13789045476192396 -0.7446078984973128
0.13847590080472158 -0.7479151705493109
0.1390613468475192 -0.7446078984973128
0.1392796774292704 -0.7355072115253434
0.13925121436995216 -0.7214524174364972
0.13916982023231986 -0.7028942247197886
0.13911316000157556 -0.6801193476570816
0.1390859872134331 -0.6533848768931689
0.13907593573906676 -0.6229508148889944
0.1390734469958019 -0.5890805466257147
0.1390737098459054 -0.5520383386079382
0.13907491923105725 -0.5120885446836534
0.1390766635131797 -0.4694955083863605
0.13907857543156577 -0.4245235867487959
0.13907855633643268 -0.37743721114986806
0.13906954127710955 -0.3285008984150945
0.1390338208327232 -0.2779782754991747
0.1389371102657161 -0.22612642380379538
0.1387406266101324 -0.17318288993932518
0.13847783036255412 -0.11937795556587753
0.13839391849102223 -0.06513541089044006
0.13880982656304763 -0.011762784471473633
0.1511115329678765 -0.012138622169382059
0.15143720795816235 -0.06529200098847793
0.1513077391507487 -0.11936637202976173
0.15093094722222444 -0.17312675321451246
0.1505241068529206 -0.22607806525808005
0.1501352289199799 -0.27794352535213934
0.149737000644665 -0.3284731717977003
0.14929861860872934 -0.3774107103303468
0.14880297785011837 -0.42449521978353016
0.1482431412896394 -0.4694639919294822
0.14761705939508948 -0.5120534564277823
0.1469243808387764 -0.5519995027486249
0.14616472139633288 -0.5890376303416003
0.14533636089603708 -0.6229029888289492
0.14443469845071163 -0.6533305371813213
0.14345032348116243 -0.6800563149544097
0.14236922228307275 -0.7028225708794429
0.14119051550299774 -0.721385695150468
0.1399935399484446 -0.7354951159693986
0.13902037711211698 -0.7447381802331334
0.13847590080472158 -0.7481826424800568
0.13793142449732615 -0.7447381802331333
0.13695826166099853 -0.7354951159693984
0.13576128610644542 -0.7213856951504678
0.13458257932637038 -0.7028225708794427
0.13350147812828067 -0.6800563149544097
0.13251710315873153 -0.6533305371813212
0.13161544071340603 -0.622902988828949
0.13078708021311028 -0.5890376303416003
0.1300274207706667 -0.5519995027486246
0.12933474221435365 -0.5120534564277824
0.12870866031980374 -0.4694639919294821
0.12814882375932476 -0.42449521978353016
0.12765318300071382 -0.3774107103303467
0.12721480096477816 -0.3284731717977001
0.12681657268946325 -0.2779435253521394
0.12642769475652255 -0.22607806525808002
0.12602085438721866 -0.1731267532145126
0.12564406245869442 -0.11936637202976161
0.1255145936512808 -0.06529200098847776
0.12584026864156664 -0.012138622169382076
0.16407024940267403 -0.012431195902906167
0.16430931417748287 -0.06542769055930825
0.16412824714162003 -0.11935040310335814
0.16364148731099865 -0.17305714358835378
0.16303354629748668 -0.2260045146435537
0.16235907614161388 -0.27787434454103227
0.1616011628417008 -0.32840325483945054