# vtk DataFile Version 3.0
Some data
ASCII
DATASET UNSTRUCTURED_GRID
POINTS 861 float
0.0 0.0 0.0
0.4 0.0 0.0
0.8 0.0 0.0
1.2000000000000002 0.0 0.0
1.6 0.0 0.0
2.0 0.0 0.0
2.4000000000000004 0.0 0.0
2.8000000000000003 0.0 0.0
3.2 0.0 0.0
3.6 0.0 0.0
4.0 0.0 0.0
4.4 0.0 0.0
4.800000000000001 0.0 0.0
5.2 0.0 0.0
5.6000000000000005 0.0 0.0
6.0 0.0 0.0
6.4 0.0 0.0
6.800000000000001 0.0 0.0
7.2 0.0 0.0
7.6000000000000005 0.0 0.0
8.0 0.0 0.0
8.4 0.0 0.0
8.8 0.0 0.0
9.200000000000001 0.0 0.0
9.600000000000001 0.0 0.0
10.0 0.0 0.0
10.4 0.0 0.0
10.8 0.0 0.0
11.200000000000001 0.0 0.0
11.600000000000001 0.0 0.0
12.0 0.0 0.0
12.4 0.0 0.0
12.8 0.0 0.0
13.200000000000001 0.0 0.0
13.600000000000001 0.0 0.0
14.0 0.0 0.0
14.4 0.0 0.0
14.8 0.0 0.0
15.200000000000001 0.0 0.0
15.600000000000001 0.0 0.0
16.0 0.0 0.0
0.0 0.1 0.0
0.4 0.1 0.0
0.8 0.1 0.0
1.2000000000000002 0.1 0.0
1.6 0.1 0.0
2.0 0.1 0.0
2.4000000000000004 0.1 0.0
2.8000000000000003 0.1 0.0
3.2 0.1 0.0
3.6 0.1 0.0
4.0 0.1 0.0
4.4 0.1 0.0
4.800000000000001 0.1 0.0
5.2 0.1 0.0
5.6000000000000005 0.1 0.0
6.0 0.1 0.0
6.4 0.1 0.0
6.800000000000001 0.1 0.0
7.2 0.1 0.0
7.6000000000000005 0.1 0.0
8.0 0.1 0.0
8.4 0.1 0.0
8.8 0.1 0.0
9.200000000000001 0.1 0.0
9.600000000000001 0.1 0.0
10.0 0.1 0.0
10.4 0.1 0.0
10.8 0.1 0.0
11.200000000000001 0.1 0.0
11.600000000000001 0.1 0.0
12.0 0.1 0.0
12.4 0.1 0.0
12.8 0.1 0.0
13.200000000000001 0.1 0.0
13.600000000000001 0.1 0.0
14.0 0.1 0.0
14.4 0.1 0.0
14.8 0.1 0.0
15.200000000000001 0.1 0.0
15.600000000000001 0.1 0.0
16.0 0.1 0.0
0.0 0.2 0.0
0.4 0.2 0.0
0.8 0.2 0.0
1.2000000000000002 0.2 0.0
1.6 0.2 0.0
2.0 0.2 0.0
2.4000000000000004 0.2 0.0
2.8000000000000003 0.2 0.0
3.2 0.2 0.0
3.6 0.2 0.0
4.0 0.2 0.0
4.4 0.2 0.0
4.800000000000001 0.2 0.0
5.2 0.2 0.0
5.6000000000000005 0.2 0.0
6.0 0.2 0.0
6.4 0.2 0.0
6.800000000000001 0.2 0.0
7.2 0.2 0.0
7.6000000000000005 0.2 0.0
8.0 0.2 0.0
8.4 0.2 0.0
8.8 0.2 0.0
9.200000000000001 0.2 0.0
9.600000000000001 0.2 0.0
10.0 0.2 0.0
10.4 0.2 0.0
10.8 0.2 0.0
11.200000000000001 0.2 0.0
11.600000000000001 0.2 0.0
12.0 0.2 0.0
12.4 0.2 0.0
12.8 0.2 0.0
13.200000000000001 0.2 0.0
13.600000000000001 0.2 0.0
14.0 0.2 0.0
14.4 0.2 0.0
14.8 0.2 0.0
15.200000000000001 0.2 0.0
15.600000000000001 0.2 0.0
16.0 0.2 0.0
0.0 0.30000000000000004 0.0
0.4 0.30000000000000004 0.0
0.8 0.30000000000000004 0.0
1.2000000000000002 0.30000000000000004 0.0
1.6 0.30000000000000004 0.0
2.0 0.30000000000000004 0.0
2.4000000000000004 0.30000000000000004 0.0
2.8000000000000003 0.30000000000000004 0.0
3.2 0.30000000000000004 0.0
3.6 0.30000000000000004 0.0
4.0 0.30000000000000004 0.0
4.4 0.30000000000000004 0.0
4.800000000000001 0.30000000000000004 0.0
5.2 0.30000000000000004 0.0
5.6000000000000005 0.30000000000000004 0.0
6.0 0.30000000000000004 0.0
6.4 0.30000000000000004 0.0
6.800000000000001 0.30000000000000004 0.0
7.2 0.30000000000000004 0.0
7.6000000000000005 0.30000000000000004 0.0
8.0 0.30000000000000004 0.0
8.4 0.30000000000000004 0.0
8.8 0.30000000000000004 0.0
9.200000000000001 0.30000000000000004 0.0
9.600000000000001 0.30000000000000004 0.0
10.0 0.30000000000000004 0.0
10.4 0.30000000000000004 0.0
10.8 0.30000000000000004 0.0
11.200000000000001 0.30000000000000004 0.0
11.600000000000001 0.30000000000000004 0.0
12.0 0.30000000000000004 0.0
12.4 0.30000000000000004 0.0
12.8 0.30000000000000004 0.0
13.200000000000001 0.30000000000000004 0.0
13.600000000000001 0.30000000000000004 0.0
14.0 0.30000000000000004 0.0
14.4 0.30000000000000004 0.0
14.8 0.30000000000000004 0.0
15.200000000000001 0.30000000000000004 0.0
15.600000000000001 0.30000000000000004 0.0
16.0 0.30000000000000004 0.0
0.0 0.4 0.0
0.4 0.4 0.0
0.8 0.4 0.0
1.2000000000000002 0.4 0.0
1.6 0.4 0.0
2.0 0.4 0.0
2.4000000000000004 0.4 0.0
2.8000000000000003 0.4 0.0
3.2 0.4 0.0
3.6 0.4 0.0
4.0 0.4 0.0
4.4 0.4 0.0
4.800000000000001 0.4 0.0
5.2 0.4 0.0
5.6000000000000005 0.4 0.0
6.0 0.4 0.0
6.4 0.4 0.0
6.800000000000001 0.4 0.0
7.2 0.4 0.0
7.6000000000000005 0.4 0.0
8.0 0.4 0.0
8.4 0.4 0.0
8.8 0.4 0.0
9.200000000000001 0.4 0.0
9.600000000000001 0.4 0.0
10.0 0.4 0.0
10.4 0.4 0.0
10.8 0.4 0.0
11.200000000000001 0.4 0.0
11.600000000000001 0.4 0.0
12.0 0.4 0.0
12.4 0.4 0.0
12.8 0.4 0.0
13.200000000000001 0.4 0.0
13.600000000000001 0.4 0.0
14.0 0.4 0.0
14.4 0.4 0.0
14.8 0.4 0.0
15.200000000000001 0.4 0.0
15.600000000000001 0.4 0.0
16.0 0.4 0.0
0.0 0.5 0.0
0.4 0.5 0.0
0.8 0.5 0.0
1.2000000000000002 0.5 0.0
1.6 0.5 0.0
2.0 0.5 0.0
2.4000000000000004 0.5 0.0
2.8000000000000003 0.5 0.0
3.2 0.5 0.0
3.6 0.5 0.0
4.0 0.5 0.0
4.4 0.5 0.0
4.800000000000001 0.5 0.0
5.2 0.5 0.0
5.6000000000000005 0.5 0.0
6.0 0.5 0.0
6.4 0.5 0.0
6.800000000000001 0.5 0.0
7.2 0.5 0.0
7.6000000000000005 0.5 0.0
8.0 0.5 0.0
8.4 0.5 0.0
8.8 0.5 0.0
9.200000000000001 0.5 0.0
9.600000000000001 0.5 0.0
10.0 0.5 0.0
10.4 0.5 0.0
10.8 0.5 0.0
11.200000000000001 0.5 0.0
11.600000000000001 0.5 0.0
12.0 0.5 0.0
12.4 0.5 0.0
12.8 0.5 0.0
13.200000000000001 0.5 0.0
13.600000000000001 0.5 0.0
14.0 0.5 0.0
14.4 0.5 0.0
14.8 0.5 0.0
15.200000000000001 0.5 0.0
15.600000000000001 0.5 0.0
16.0 0.5 0.0
0.0 0.6000000000000001 0.0
0.4 0.6000000000000001 0.0
0.8 0.6000000000000001 0.0
1.2000000000000002 0.6000000000000001 0.0
1.6 0.6000000000000001 0.0
2.0 0.6000000000000001 0.0
2.4000000000000004 0.6000000000000001 0.0
2.8000000000000003 0.6000000000000001 0.0
3.2 0.6000000000000001 0.0
3.6 0.6000000000000001 0.0
4.0 0.6000000000000001 0.0
4.4 0.6000000000000001 0.0
4.800000000000001 0.6000000000000001 0.0
5.2 0.6000000000000001 0.0
5.6000000000000005 0.6000000000000001 0.0
6.0 0.6000000000000001 0.0
6.4 0.6000000000000001 0.0
6.800000000000001 0.6000000000000001 0.0
7.2 0.6000000000000001 0.0
7.6000000000000005 0.6000000000000001 0.0
8.0 0.6000000000000001 0.0
8.4 0.6000000000000001 0.0
8.8 0.6000000000000001 0.0
9.200000000000001 0.6000000000000001 0.0
9.600000000000001 0.6000000000000001 0.0
10.0 0.6000000000000001 0.0
10.4 0.6000000000000001 0.0
10.8 0.6000000000000001 0.0
11.200000000000001 0.6000000000000001 0.0
11.600000000000001 0.6000000000000001 0.0
12.0 0.6000000000000001 0.0
12.4 0.6000000000000001 0.0
12.8 0.6000000000000001 0.0
13.200000000000001 0.6000000000000001 0.0
13.600000000000001 0.6000000000000001 0.0
14.0 0.6000000000000001 0.0
14.4 0.6000000000000001 0.0
14.8 0.6000000000000001 0.0
15.200000000000001 0.6000000000000001 0.0
15.600000000000001 0.6000000000000001 0.0
16.0 0.6000000000000001 0.0
0.0 0.7000000000000001 0.0
0.4 0.7000000000000001 0.0
0.8 0.7000000000000001 0.0
1.2000000000000002 0.7000000000000001 0.0
1.6 0.7000000000000001 0.0
2.0 0.7000000000000001 0.0
2.4000000000000004 0.7000000000000001 0.0
2.8000000000000003 0.7000000000000001 0.0
3.2 0.7000000000000001 0.0
3.6 0.7000000000000001 0.0
4.0 0.7000000000000001 0.0
4.4 0.7000000000000001 0.0
4.800000000000001 0.7000000000000001 0.0
5.2 0.7000000000000001 0.0
5.6000000000000005 0.7000000000000001 0.0
6.0 0.7000000000000001 0.0
6.4 0.7000000000000001 0.0
6.800000000000001 0.7000000000000001 0.0
7.2 0.7000000000000001 0.0
7.6000000000000005 0.7000000000000001 0.0
8.0 0.7000000000000001 0.0
8.4 0.7000000000000001 0.0
8.8 0.7000000000000001 0.0
9.200000000000001 0.7000000000000001 0.0
9.600000000000001 0.7000000000000001 0.0
10.0 0.7000000000000001 0.0
10.4 0.7000000000000001 0.0
10.8 0.7000000000000001 0.0
11.200000000000001 0.7000000000000001 0.0
11.600000000000001 0.7000000000000001 0.0
12.0 0.7000000000000001 0.0
12.4 0.7000000000000001 0.0
12.8 0.7000000000000001 0.0
13.200000000000001 0.7000000000000001 0.0
13.600000000000001 0.7000000000000001 0.0
14.0 0.7000000000000001 0.0
14.4 0.7000000000000001 0.0
14.8 0.7000000000000001 0.0
15.200000000000001 0.7000000000000001 0.0
15.600000000000001 0.7000000000000001 0.0
16.0 0.7000000000000001 0.0
0.0 0.8 0.0
0.4 0.8 0.0
0.8 0.8 0.0
1.2000000000000002 0.8 0.0
1.6 0.8 0.0
2.0 0.8 0.0
2.4000000000000004 0.8 0.0
2.8000000000000003 0.8 0.0
3.2 0.8 0.0
3.6 0.8 0.0
4.0 0.8 0.0
4.4 0.8 0.0
4.800000000000001 0.8 0.0
5.2 0.8 0.0
5.6000000000000005 0.8 0.0
6.0 0.8 0.0
6.4 0.8 0.0
6.800000000000001 0.8 0.0
7.2 0.8 0.0
7.6000000000000005 0.8 0.0
8.0 0.8 0.0
8.4 0.8 0.0
8.8 0.8 0.0
9.200000000000001 0.8 0.0
9.600000000000001 0.8 0.0
10.0 0.8 0.0
10.4 0.8 0.0
10.8 0.8 0.0
11.200000000000001 0.8 0.0
11.600000000000001 0.8 0.0
12.0 0.8 0.0
12.4 0.8 0.0
12.8 0.8 0.0
13.200000000000001 0.8 0.0
13.600000000000001 0.8 0.0
14.0 0.8 0.0
14.4 0.8 0.0
14.8 0.8 0.0
15.200000000000001 0.8 0.0
15.600000000000001 0.8 0.0
16.0 0.8 0.0
0.0 0.9 0.0
0.4 0.9 0.0
0.8 0.9 0.0
1.2000000000000002 0.9 0.0
1.6 0.9 0.0
2.0 0.9 0.0
2.4000000000000004 0.9 0.0
2.8000000000000003 0.9 0.0
3.2 0.9 0.0
3.6 0.9 0.0
4.0 0.9 0.0
4.4 0.9 0.0
4.800000000000001 0.9 0.0
5.2 0.9 0.0
5.6000000000000005 0.9 0.0
6.0 0.9 0.0
6.4 0.9 0.0
6.800000000000001 0.9 0.0
7.2 0.9 0.0
7.6000000000000005 0.9 0.0
8.0 0.9 0.0
8.4 0.9 0.0
8.8 0.9 0.0
9.200000000000001 0.9 0.0
9.600000000000001 0.9 0.0
10.0 0.9 0.0
10.4 0.9 0.0
10.8 0.9 0.0
11.200000000000001 0.9 0.0
11.600000000000001 0.9 0.0
12.0 0.9 0.0
12.4 0.9 0.0
12.8 0.9 0.0
13.200000000000001 0.9 0.0
13.600000000000001 0.9 0.0
14.0 0.9 0.0
14.4 0.9 0.0
14.8 0.9 0.0
15.200000000000001 0.9 0.0
15.600000000000001 0.9 0.0
16.0 0.9 0.0
0.0 1.0 0.0
0.4 1.0 0.0
0.8 1.0 0.0
1.2000000000000002 1.0 0.0
1.6 1.0 0.0
2.0 1.0 0.0
2.4000000000000004 1.0 0.0
2.8000000000000003 1.0 0.0
3.2 1.0 0.0
3.6 1.0 0.0
4.0 1.0 0.0
4.4 1.0 0.0
4.800000000000001 1.0 0.0
5.2 1.0 0.0
5.6000000000000005 1.0 0.0
6.0 1.0 0.0
6.4 1.0 0.0
6.800000000000001 1.0 0.0
7.2 1.0 0.0
7.6000000000000005 1.0 0.0
8.0 1.0 0.0
8.4 1.0 0.0
8.8 1.0 0.0
9.200000000000001 1.0 0.0
9.600000000000001 1.0 0.0
10.0 1.0 0.0
10.4 1.0 0.0
10.8 1.0 0.0
11.200000000000001 1.0 0.0
11.600000000000001 1.0 0.0
12.0 1.0 0.0
12.4 1.0 0.0
12.8 1.0 0.0
13.200000000000001 1.0 0.0
13.600000000000001 1.0 0.0
14.0 1.0 0.0
14.4 1.0 0.0
14.8 1.0 0.0
15.200000000000001 1.0 0.0
15.600000000000001 1.0 0.0
16.0 1.0 0.0
0.0 1.1 0.0
0.4 1.1 0.0
0.8 1.1 0.0
1.2000000000000002 1.1 0.0
1.6 1.1 0.0
[...]
POINT_DATA 861
SCALARS Disp float 2
LOOKUP_TABLE default
0.0 0.0
0.005694860803844585 -0.23938253465078624
0.006994543262935649 -0.46971369069983826
0.007774240514009952 -0.6990256920266253
0.008774102438049025 -0.9279805472729334
0.01037252888408055 -1.1561847978600717
0.013159685059224211 -1.3831168468323884
0.017850900888541438 -1.6081211106205946
0.025286721162613726 -1.8303794069471102
0.036383408794366946 -2.048829329180909
0.05205822563072639 -2.2620393970500343
0.07318205619411233 -2.4681299390723703
0.10055747199133028 -2.664793387970606
0.13491029797214024 -2.8494013796557307
0.1768880602813614 -3.0190852352819837
0.22699337649171616 -3.1707979436665705
0.2854613704741562 -3.3013916806720736
0.35211030060150605 -3.4077444062729794
0.4262117269700708 -3.4869722398466627
0.5064339987768612 -3.5366745561846398
0.5906538535218738 -3.5552119886018008
0.6748737082668821 -3.536674556184528
0.7550959800736549 -3.4869722398464367
0.8291974064421899 -3.407744406272653
0.8958463365695031 -3.3013916806716654
0.9543143305519038 -3.1707979436661047
1.0044196467622188 -3.0190852352814725
1.0463974090713999 -2.849401379655189
1.0807502350521694 -2.6647933879700507
1.1081256508493498 -2.468129939071821
1.1292494814127017 -2.2620393970495023
1.144924298249032 -2.0488293291804087
1.1560209858807637 -1.8303794069466484
1.1634568061548198 -1.6081211106201776
1.1681480219841258 -1.3831168468320205
1.170935178159263 -1.1561847978597597
1.1725336046052914 -0.9279805472726775
1.1735334665293293 -0.6990256920264292
1.1743131637804032 -0.469713690699701
1.175612846239493 -0.23938253465071005
1.1813077070433344 0.0
0.05971167829897748 -0.002376757660119884
0.0636853175277172 -0.23963647639528324
0.0643658327750111 -0.4697754450744815
0.06505783402382047 -0.6991143799478232
0.06593636440016551 -0.9281214370874228
0.06729706834080389 -1.156493233188866
0.06969499516964742 -1.3837541995824563
0.07380587623222733 -1.6092798402450563
0.0804194897817227 -1.832274464662646
0.0903728561379822 -2.051679648408035
0.10448448743432157 -2.266054775234445
0.12351614814899993 -2.4735055084851987
0.14817404609868046 -2.6717095095600514
0.1791185574390998 -2.858023238381825
0.21694164555963594 -3.029555645852959
0.2621123257726931 -3.1832143493492455
0.3148657335839615 -3.315772227634207
0.3750701639980236 -3.423993097616939
0.4421042658835652 -3.50485092738691
0.5147119326290935 -3.5557786735820427
0.5906538535218603 -3.5748213887710247
0.6665957744146225 -3.555778673581928
0.7392034411601343 -3.504850927386679
0.8062375430456501 -3.4239930976166044
0.86644197345968 -3.3157722276337895
0.9191953812709137 -3.1832143493487703
0.9643660614839349 -3.0295556458524384
1.0021891496044348 -2.858023238381274
1.0331336609448178 -2.671709509559488
1.0577915588944644 -2.47350550848464
1.076823219609112 -2.266054775233906
1.0909348509054253 -2.0516796484075286
1.1008882172616652 -1.8322744646621798
1.107501830811146 -1.6092798402446362
1.1116127118737156 -1.3837541995820866
1.1140106387025535 -1.1564932331885531
1.1153713426431895 -0.9281214370871667
1.1162498730195338 -0.6991143799476273
1.1169418742683428 -0.46977544507434416
1.1176223895156367 -0.2396364763952067
1.121596028744371 -0.002376757660117364
0.11845620731855165 -0.004261434209710313
0.12136645313002267 -0.23976206816325019
0.12175701039043893 -0.4698087357481372
0.12232177817717114 -0.6991925580318693
0.12308842438066239 -0.9282342734516484
0.1242356166674888 -1.156737291584615
0.12625324687890202 -1.384281617481994
0.12978649662372005 -1.6102729117129608
0.13556392535393144 -1.8339330568160324
0.14434611752143833 -2.054201543112135
0.15685733398832075 -2.269624685795431
0.17375991259010087 -2.478293052774565
0.19566610620145586 -2.6778739535927616
0.22315806392380594 -2.8657148366541105
0.2567764950975038 -3.0389056993964862
0.2969568929551419 -3.1943158223432913
0.3439438700877363 -3.328650619170661
0.39767246518833693 -3.4385733359452053
0.457622000691951 -3.5209228510312194
0.5226060527805266 -3.5729347484148173
0.5906538535218468 -3.5924344712660714
0.6587016542631631 -3.5729347484147005
0.7236857063517236 -3.520922851030983
0.783635241855315 -3.438573335944864
0.8373638369558876 -3.328650619170236
0.8843508140884514 -3.194315822342808
0.9245312119460573 -3.038905699395957
0.9581496431197228 -2.8657148366535514
0.9856416008420406 -2.677873953592189
1.0075477944533657 -2.4782930527739992
1.0244503730551182 -2.2696246857948856
1.0369615895219777 -2.054201543111623
1.0457437816894668 -1.833933056815562
1.0515212104196652 -1.6102729117125383
1.055054460164474 -1.3842816174816224
1.0570720903758826 -1.1567372915843015
1.058219282662707 -0.9282342734513922
1.0589859288661978 -0.6991925580316735
1.05955069665293 -0.4698087357479999
1.0599412539133464 -0.23976206816317325
1.062851499724812 -0.004261434209705036
0.17669113640254008 -0.00577521107090566
0.1788878680360267 -0.23984760653425316
0.17912623025034066 -0.4698271898214073
0.17956817038626954 -0.6992560058953384
0.18022519259240563 -0.9283267901630247
0.18118475765692343 -1.1569247591789606
0.18284414423983322 -1.3847028648212794
0.18580638307175606 -1.6111014857899917
0.19074296607576616 -1.835352215661774
0.19833761816086642 -2.056389390231819
0.20922494840617276 -2.272742225590626
0.223972041791927 -2.48248630573331
0.24310154126860928 -2.6832804556701118
0.26711602780898436 -2.8724675238643975
0.29649277662159723 -3.047124938005505
0.33164084614326605 -3.2040912664673757
0.3728182486110353 -3.3400170983778037
0.4200260819911041 -3.451478481387938
0.4728512235050821 -3.5351815954640506
0.5302842340790227 -3.5881848220327655
0.5906538535218341 -3.6081458499807266
0.6510234729646416 -3.5881848220326464
0.7084564835385688 -3.53518159546381
0.7612816250525264 -3.451478481387591
0.8084894584325711 -3.340017098377371
0.8496668609003133 -3.204091266466885
0.8848149304219539 -3.0471249380049685
0.9141916792345385 -2.872467523863831
0.9382061657748852 -2.683280455669532
0.9573356652515413 -2.4824863057327367
0.9720827586372718 -2.2727422255900755
0.982970088882558 -2.0563893902313026
0.9905647409676424 -1.8353522156613005
0.9955013239716409 -1.6111014857895665
0.9984635628035561 -1.384702864820906
1.0001229493864618 -1.1569247591786467
1.0010825144509783 -0.9283267901627684
1.0017395366571142 -0.6992560058951426
1.0021814767930433 -0.46982718982127003
1.002419839007357 -0.23984760653417592
1.004616570640839 -0.00577521107089788
0.23463497719319704 -0.006997735117911567
0.2362993624320983 -0.23991440722410637
0.23645493301851422 -0.46983779980340407
0.2367932003243948 -0.6993052736192424
0.2373431449542069 -0.9284026936595213
0.2381365669489096 -1.157067183296089
0.23947422242629457 -1.385025713743553
0.24187838919927201 -1.6117683886488534
0.24597977840682406 -1.8365321960064986
0.25238197697552833 -2.058240774043684
0.2616340945805348 -2.2754040812711067
0.2742127580292255 -2.48608149901097
0.29055058969684355 -2.6879253828377085
0.31107150299994457 -2.8782773448441517
0.3361929445792831 -3.05420729168339
0.3662837591101246 -3.212532705739484
0.4016123566696611 -3.3498619062797816
0.44224782183545086 -3.4626969591948273
0.48791463511415656 -3.5476278246476927
0.53783537396037 -3.6015603550690427
0.5906538535218215 -3.6220078287447155
0.6434723330832693 -3.6015603550689224
0.6933930719294708 -3.5476278246474484
0.7390598852081586 -3.4626969591944747
0.7796953503739276 -3.349861906279344
0.8150239479334407 -3.2125327057389863
0.8451147624642579 -3.0542072916828467
0.8702362040435719 -2.8782773448435783
0.8907571173466489 -2.6879253828371232
0.9070949490142443 -2.4860814990103908
0.9196736124629151 -2.2754040812705503
0.9289257300679044 -2.058240774043164
0.9353279286365948 -1.836532196006022
0.9394293178441367 -1.611768388648426
0.9418334846171081 -1.385025713743179
0.9431711400944901 -1.1570671832957746
0.9439645620891918 -0.928402693659265
0.9445145067190037 -0.6993052736190466
0.9448527740248844 -0.4698377998032668
0.9450083446113002 -0.2399144072240288
0.9466727298501976 -0.006997735117901629
0.2923864390702624 -0.007979195665934453
0.29363398377594285 -0.23996975029232692
0.29374134954532494 -0.4698453134499289
0.2939939623553184 -0.6993417540962265
0.2944386211451224 -0.928464727853939
0.2950849548877541 -1.1571746046421592
0.29613595799271997 -1.3852632180447533
0.29802193253129217 -1.6122793331279583
0.3012976911760866 -1.8374758972280139
0.30651401553643304 -2.0597567418271603
0.3141318024732495 -2.277609991080016
0.32454026103033956 -2.4890783110848735
0.33808565646812105 -2.691808263426338
0.3551119952425599 -2.8831435116399455
0.37597192095994203 -3.06015187781842
0.40100075870112445 -3.2196365804739684
0.430459070511594 -3.3581760346427822
0.46447238566365256 -3.472217044969682
0.5029313173287032 -3.5582582787083235
0.5453322733804911 -3.6130769196245702
0.5906538535218088 -3.634051352189521
0.6359754336631229 -3.613076919624447
0.6783763897149006 -3.5582582787080757
0.716835321379936 -3.4722170449693253
0.7508486365319771 -3.3581760346423395
0.7803069483424268 -3.2196365804734652
0.8053357860835885 -3.0601518778178716
0.8261957118009505 -2.8831435116393664
0.8432220505753693 -2.6918082634257474
0.8567674460131323 -2.4890783110842896
0.8671759045702057 -2.277609991079456
0.8747936915070077 -2.0597567418266367
0.8800100158673426 -1.8374758972275338
0.8832857745121288 -1.6122793331275291
0.8851717490506962 -1.3852632180443787
0.8862227521556599 -1.1571746046418445
0.8868690858982909 -0.9284647278536826
0.8873137446880949 -0.6993417540960306
0.8875663574980883 -0.4698453134497917
0.8876737232674705 -0.2399697502922491
0.8889212679731475 -0.007979195665922695
0.34999752659259087 -0.008758011137319735
0.35091451033029464 -0.24001637687694866
0.35099052545076503 -0.469852136436094
0.35117020791418274 -0.6993668801277141
0.35151094635428676 -0.9285141853992719
0.3520228279546791 -1.1572552064586907
0.35282009255549357 -1.3854308250545895
0.3542344046994853 -1.6126485814374627
0.35672428681002155 -1.8381894749245207
0.36076949355689375 -2.060941540331337
0.3667661487227149 -2.279363312896368
0.3750151750116269 -2.491479726258446
0.385778954175898 -2.694932381471516
0.39932319291921137 -2.887069414018205
0.4159355588152309 -3.064961087552979
0.43590651126581026 -3.2254038557475213
0.45948796743262416 -3.364955097901935
0.48684728251948645 -3.48002718793624
0.5180316661566937 -3.5670615796592724
0.5528481551498947 -3.6227338664993964
0.5906538535217958 -3.6442896087306362
0.6284595518936937 -3.622733866499272
0.6632760408868864 -3.567061579659022
0.694460424524081 -3.48002718793588
0.7218197396109289 -3.3649550979014884
0.7454011957777268 -3.2254038557470133
0.7653721482282893 -3.064961087552426
0.7819845141242925 -2.887069414017622
0.7955287528675904 -2.6949323814709207
0.806292532031847 -2.491479726257858
0.8145415583207455 -2.2793633128958044
0.820538213486555 -2.060941540330811
0.8245834202334181 -1.8381894749240386
0.8270733023439482 -1.6126485814370324
0.8284876144879363 -1.3854308250542144
0.8292848790887494 -1.1572552064583759
0.8297967606891413 -0.9285141853990155
0.8301374991292453 -0.6993668801275182
0.830317181592663 -0.46985213643595686
0.8303931967131333 -0.24001637687687066
0.8313101804508346 -0.008758011137306464
0.4075031135052839 -0.00936500827432199
0.40815797441303536 -0.24005641213006113
0.4082097584787332 -0.4698587800249248
0.4083237065664607 -0.6993819704426203
0.40856210458413056 -0.9285508086601009
0.4089432730708115 -1.1573152046294066
0.40952118319329556 -1.3855428006592692
0.41051074902890416 -1.6128952999535635
0.41227143560006196 -1.83868777595067
0.4151882895544805 -2.061803667324814
0.4195876041724168 -2.280670973990913
0.42569856379086063 -2.4932924709391884
0.43370534883909884 -2.6973051217070574
0.4437948701655894 -2.8900628088510136
0.4561851549853064 -3.068642258034939
0.47112083754894307 -3.22983969923746
0.4888372916097212 -3.37019985664238
0.5095230202031759 -3.4861184014712308
0.5333569773122417 -3.5740181084773908
0.5604661231337227 -3.630512700005736
0.5906538535217823 -3.6527176504741323
0.6208415839098401 -3.6305127000056103
0.6479507297313142 -3.574018108477138
0.6717846868403707 -3.4861184014708675
0.692470415433814 -3.37019985664193
0.7101868694945792 -3.2298396992369485
0.7251225520582034 -3.0686422580343824
0.7375128368779081 -2.8900628088504274
0.7476023582043879 -2.6973051217064596
0.7556091432526152 -2.4932924709385977
0.7617201028710489 -2.2806709739903472
0.7661194174889765 -2.061803667324285
0.7690362714433888 -1.8386877759501865
0.7707969580145422 -1.612895299953132
0.7717865238501483 -1.3855428006588937
0.7723644339726315 -1.1573152046290915
0.7727456024593122 -0.9285508086598445
0.772984000476982 -0.6993819704424246
0.7730979485647094 -0.4698587800247876
0.7731497326304073 -0.2400564121299831
0.7738045935381569 -0.009365008274307484
0.4649243597223723 -0.009829278777128055
0.46538027097542833 -0.2400917233066253
0.4654057509998961 -0.4698644368713346
0.4654575872505163 -0.6993880722998396
0.46559631945995467 -0.9285739186246285
0.46584357775522184 -1.1573574862053544
0.4662243732518446 -1.3856139884065066
0.4668448702857288 -1.6130418811191563
0.46794194276554063 -1.8389942926986025
0.46979702793221206 -2.062360871450603
0.4726484168685731 -2.281545472489111
0.4766587460384524 -2.494528164100347
0.4819431867303701 -2.698938743501435
0.4886180400928287 -2.892136870616463
0.49682915095068797 -3.0712078690914915
0.5067637734582063 -3.232954592452598
0.5186389906111503 -3.3739183049171912
0.5326657950145643 -3.490487361814427
0.5490789634829355 -3.579101996419574
0.5682902561347412 -3.6363748657383743
0.5906538535217686 -3.659310264714378
0.6130174509087951 -3.6363748657382478
0.6322287435605962 -3.5791019964193196
0.6486419120289599 -3.490487361814062
0.6626687164323665 -3.3739183049167387
0.6745439335853014 -3.2329545924520833
0.6844785560928114 -3.0712078690909324
0.6926896669506629 -2.892136870615875
0.6993645203131148 -2.6989387435008347
0.7046489610050259 -2.494528164099754
0.7086592901748984 -2.281545472488543
0.7115106791112537 -2.062360871450073
0.7133657642779214 -1.8389942926981182
0.7144628367577307 -1.6130418811187244
0.7150833337916135 -1.3856139884061307
0.7154641292882358 -1.1573574862050393
0.7157113875835027 -0.9285739186243721
0.7158501197929411 -0.6993880722996437
0.7159019560435613 -0.4698644368711973
0.7159274360680289 -0.24009172330654724
0.7163833473210838 -0.009829278777112593
0.5222760058282683 -0.010180243114156886
0.5225902993331335 -0.24012471967269275
0.5225846665642869 -0.46986736058160233
0.5225759259153558 -0.6993859523665161
0.522617939860134 -0.9285833935924196
0.5227280430732951 -1.1573814343291
0.5229156894939457 -1.3856549116303647
0.523217964793181 -1.6131148722371802
0.5237300577127126 -1.839142704932491
0.524610086144793 -2.0626443687365725
0.525989609137984 -2.2820120427824544
0.527960128863887 -2.4952080943806334
0.5305713895499555 -2.6998534939965375
0.533879892116637 -2.8933129443660994
0.5379646391375646 -3.072679268770777
0.5429451125847864 -3.234766583076303
0.5490040256976032 -3.3761251698446895
0.5563879419139213 -3.493146000456829
0.5653860225425238 -3.582293642558326
0.5764805327525436 -3.640258566642474
0.5906538535217545 -3.664013227196057
0.6048271742909649 -3.6402585666423466
0.6159216845009827 -3.5822936425580703
0.6249197651295805 -3.4931460004564623
0.6323036813458943 -3.376125169844235
0.6383625944587067 -3.2347665830757864
0.6433430679059245 -3.0726792687702167
0.6474278149268492 -2.8933129443655097
0.6507363174935282 -2.699853493995936
0.6533475781795938 -2.4952080943800388
0.6553180979054936 -2.2820120427818855
0.6566976208986822 -2.062644368736042
0.6575776493307612 -1.8391427049320062
0.6580897422502918 -1.6131148722367483
0.6583920175495266 -1.3856549116299888
0.658579663970177 -1.1573814343287847
0.658689767183338 -0.9285833935921632
0.6587317811281163 -0.6993859523663203
0.6587230404791852 -0.469867360581465
0.6587174077103384 -0.24012471967261473
0.6590317012152029 -0.010180243114140763
0.5795748372296545 -0.010443241447071252
0.5797894991788708 -0.24015806639417114
0.5797515213650988 -0.46986583440524365
0.5796832381143469 -0.6993761103469971
0.5796310824614797 -0.9285794039992062
0.579604518012365 -1.1573862502269345
0.5795944217124209 -1.385667805873647
0.5795910922118332 -1.6131373862367153
0.579590147313446 -1.8391825924987129
0.5795901759961648 -2.0627163262646273
0.5795903528800054 -2.2821309106380667
0.5795895221022939 -2.495385713927212
0.579582479579504 -2.700100041408233
0.5795659306704583 -2.893639710291385
0.5795504283450822 -3.073103462772331
0.5795917718187544 -3.2353181224817495
0.5798358890938055 -3.3768557420804366
0.5805695134083095 -3.4941315002488342
0.582203563651946 -3.583624823155341
0.5851956387402638 -3.6421079111335986
0.5906538535217399 -3.6667370690877767
0.5961120683032165 -3.6421079111334707
0.5991041433915335 -3.5836248231550853
0.6007381936351686 -3.494131500248467
0.6014718179496726 -3.3768557420799823
0.6017159352247242 -3.235318122481233
0.6017572786983971 -3.07310346277177
0.6017417763730223 -2.8936397102907954
0.6017252274639783 -2.7001000414076315
0.6017181849411896 -2.4953857139266176
0.6017173541634793 -2.2821309106374974
0.6017175310473205 -2.0627163262640966
0.6017175597300399 -1.839182592498228
0.6017166148316532 -1.613137386236283
0.6017132853310656 -1.3856678058732712
0.6017031890311216 -1.1573862502266195
0.6016766245820072 -0.92857940399895
0.60162446892914 -0.6993761103468012
0.601556185678388 -0.4698658344051061
0.601518207864616 -0.24015806639409318
0.6017328698138318 -0.010443241447054693
0.6368318864643463 -0.010642671083096121
0.6369778218331552 -0.2401915765297476
0.6369104287023238 -0.4698594772727465
0.6367844539239239 -0.6993587167493396
0.6366408748507242 -0.9285623698331373
0.6364798120908023 -1.1573717740931453
0.6362726669774019 -1.3856523489300197
0.6359637283314064 -1.6131142406939916
0.6354498995349012 -1.8391426025467945
0.6345702076997777 -2.0626443944292747
0.6331914480076567 -2.2820120704907434
0.6312180372376142 -2.4952063182121234
0.6285919269126748 -2.699847972568216
0.6252509109537547 -2.893304227517151
0.6211385247038291 -3.072680336799657
0.6162455553227415 -3.234820223609378
0.6106680134412698 -3.3763259483803023
0.604673697356675 -3.4936547715029196
0.5987050339907879 -3.5832939127083083
0.5934041667784288 -3.6420377736627576
0.5906538535217252 -3.66758500182948
0.5879035402650208 -3.6420377736626297
0.5826026730526619 -3.5832939127080525
0.576634009686778 -3.4936547715025528
0.5706396936021885 -3.376325948379849
0.5650621517207225 -3.234820223608862
0.5601691823396402 -3.0726803367990967
0.5560567960897199 -2.8933042275165626
0.5527157801308057 -2.6998479725676154
0.550089669805872 -2.4952063182115296
0.5481162590358346 -2.2820120704901745
0.546737499343718 -2.0626443944287445
0.5458578075085972 -1.8391426025463098
0.5453439787120936 -1.6131142406935592
0.5450350400660987 -1.3856523489296435
0.5448278949526988 -1.1573717740928304
0.5446668321927772 -0.9285623698328811
0.5445232531195776 -0.6993587167491435
0.5443972783411778 -0.46985947727260896
0.5443298852103464 -0.2401915765296696
0.5444758205791551 -0.010642671083079343
0.6940599398513172 -0.010795404835572786
0.6941590179191204 -0.2402233062841882
0.6940652961007937 -0.4698487028356769
0.693884720326332 -0.6993339737546431
0.6936531510928294 -0.9285328976700271
0.6933610126666421 -1.1573384390743349
0.692961742434119 -1.3856088068285306
0.6923350650365374 -1.6130404714038042
0.6912373015811404 -1.8389941442196072
0.6893835440866171 -2.0623611047268526
0.6865324056132703 -2.281545192561848
0.6825183413226942 -2.4945242790095783
0.677220646599037 -2.6989274395253
0.67051844802542 -2.8921196079616953
0.6622866441535055 -3.071211120489422
0.6524403905244922 -3.233064425402352
0.6410194371290521 -3.374319268304061
0.6282623172275473 -3.4914832652621204
0.6146752304770512 -3.5810999169422533
0.6013741019092309 -3.64015865026822
0.5906538535217107 -3.666728845697633