# vtk DataFile Version 3.0
Some data
ASCII
DATASET UNSTRUCTURED_GRID
POINTS 861 float
0.0 0.0 0.0
0.4 0.0 0.0
0.8 0.0 0.0
1.2000000000000002 0.0 0.0
1.6 0.0 0.0
2.0 0.0 0.0
2.4000000000000004 0.0 0.0
2.8000000000000003 0.0 0.0
3.2 0.0 0.0
3.6 0.0 0.0
4.0 0.0 0.0
4.4 0.0 0.0
4.800000000000001 0.0 0.0
5.2 0.0 0.0
5.6000000000000005 0.0 0.0
6.0 0.0 0.0
6.4 0.0 0.0
6.800000000000001 0.0 0.0
7.2 0.0 0.0
7.6000000000000005 0.0 0.0
8.0 0.0 0.0
8.4 0.0 0.0
8.8 0.0 0.0
9.200000000000001 0.0 0.0
9.600000000000001 0.0 0.0
10.0 0.0 0.0
10.4 0.0 0.0
10.8 0.0 0.0
11.200000000000001 0.0 0.0
11.600000000000001 0.0 0.0
12.0 0.0 0.0
12.4 0.0 0.0
12.8 0.0 0.0
13.200000000000001 0.0 0.0
13.600000000000001 0.0 0.0
14.0 0.0 0.0
14.4 0.0 0.0
14.8 0.0 0.0
15.200000000000001 0.0 0.0
15.600000000000001 0.0 0.0
16.0 0.0 0.0
0.0 0.1 0.0
0.4 0.1 0.0
0.8 0.1 0.0
1.2000000000000002 0.1 0.0
1.6 0.1 0.0
2.0 0.1 0.0
2.4000000000000004 0.1 0.0
2.8000000000000003 0.1 0.0
3.2 0.1 0.0
3.6 0.1 0.0
4.0 0.1 0.0
4.4 0.1 0.0
4.800000000000001 0.1 0.0
5.2 0.1 0.0
5.6000000000000005 0.1 0.0
6.0 0.1 0.0
6.4 0.1 0.0
6.800000000000001 0.1 0.0
7.2 0.1 0.0
7.6000000000000005 0.1 0.0
8.0 0.1 0.0
8.4 0.1 0.0
8.8 0.1 0.0
9.200000000000001 0.1 0.0
9.600000000000001 0.1 0.0
10.0 0.1 0.0
10.4 0.1 0.0
10.8 0.1 0.0
11.200000000000001 0.1 0.0
11.600000000000001 0.1 0.0
12.0 0.1 0.0
12.4 0.1 0.0
12.8 0.1 0.0
13.200000000000001 0.1 0.0
13.600000000000001 0.1 0.0
14.0 0.1 0.0
14.4 0.1 0.0
14.8 0.1 0.0
15.200000000000001 0.1 0.0
15.600000000000001 0.1 0.0
16.0 0.1 0.0
0.0 0.2 0.0
0.4 0.2 0.0
0.8 0.2 0.0
1.2000000000000002 0.2 0.0
1.6 0.2 0.0
2.0 0.2 0.0
2.4000000000000004 0.2 0.0
2.8000000000000003 0.2 0.0
3.2 0.2 0.0
3.6 0.2 0.0
4.0 0.2 0.0
4.4 0.2 0.0
4.800000000000001 0.2 0.0
5.2 0.2 0.0
5.6000000000000005 0.2 0.0
6.0 0.2 0.0
6.4 0.2 0.0
6.800000000000001 0.2 0.0
7.2 0.2 0.0
7.6000000000000005 0.2 0.0
8.0 0.2 0.0
8.4 0.2 0.0
8.8 0.2 0.0
9.200000000000001 0.2 0.0
9.600000000000001 0.2 0.0
10.0 0.2 0.0
10.4 0.2 0.0
10.8 0.2 0.0
11.200000000000001 0.2 0.0
11.600000000000001 0.2 0.0
12.0 0.2 0.0
12.4 0.2 0.0
12.8 0.2 0.0
13.200000000000001 0.2 0.0
13.600000000000001 0.2 0.0
14.0 0.2 0.0
14.4 0.2 0.0
14.8 0.2 0.0
15.200000000000001 0.2 0.0
15.600000000000001 0.2 0.0
16.0 0.2 0.0
0.0 0.30000000000000004 0.0
0.4 0.30000000000000004 0.0
0.8 0.30000000000000004 0.0
1.2000000000000002 0.30000000000000004 0.0
1.6 0.30000000000000004 0.0
2.0 0.30000000000000004 0.0
2.4000000000000004 0.30000000000000004 0.0
2.8000000000000003 0.30000000000000004 0.0
3.2 0.30000000000000004 0.0
3.6 0.30000000000000004 0.0
4.0 0.30000000000000004 0.0
4.4 0.30000000000000004 0.0
4.800000000000001 0.30000000000000004 0.0
5.2 0.30000000000000004 0.0
5.6000000000000005 0.30000000000000004 0.0
6.0 0.30000000000000004 0.0
6.4 0.30000000000000004 0.0
6.800000000000001 0.30000000000000004 0.0
7.2 0.30000000000000004 0.0
7.6000000000000005 0.30000000000000004 0.0
8.0 0.30000000000000004 0.0
8.4 0.30000000000000004 0.0
8.8 0.30000000000000004 0.0
9.200000000000001 0.30000000000000004 0.0
9.600000000000001 0.30000000000000004 0.0
10.0 0.30000000000000004 0.0
10.4 0.30000000000000004 0.0
10.8 0.30000000000000004 0.0
11.200000000000001 0.30000000000000004 0.0
11.600000000000001 0.30000000000000004 0.0
12.0 0.30000000000000004 0.0
12.4 0.30000000000000004 0.0
12.8 0.30000000000000004 0.0
13.200000000000001 0.30000000000000004 0.0
13.600000000000001 0.30000000000000004 0.0
14.0 0.30000000000000004 0.0
14.4 0.30000000000000004 0.0
14.8 0.30000000000000004 0.0
15.200000000000001 0.30000000000000004 0.0
15.600000000000001 0.30000000000000004 0.0
16.0 0.30000000000000004 0.0
0.0 0.4 0.0
0.4 0.4 0.0
0.8 0.4 0.0
1.2000000000000002 0.4 0.0
1.6 0.4 0.0
2.0 0.4 0.0
2.4000000000000004 0.4 0.0
2.8000000000000003 0.4 0.0
3.2 0.4 0.0
3.6 0.4 0.0
4.0 0.4 0.0
4.4 0.4 0.0
4.800000000000001 0.4 0.0
5.2 0.4 0.0
5.6000000000000005 0.4 0.0
6.0 0.4 0.0
6.4 0.4 0.0
6.800000000000001 0.4 0.0
7.2 0.4 0.0
7.6000000000000005 0.4 0.0
8.0 0.4 0.0
8.4 0.4 0.0
8.8 0.4 0.0
9.200000000000001 0.4 0.0
9.600000000000001 0.4 0.0
10.0 0.4 0.0
10.4 0.4 0.0
10.8 0.4 0.0
11.200000000000001 0.4 0.0
11.600000000000001 0.4 0.0
12.0 0.4 0.0
12.4 0.4 0.0
12.8 0.4 0.0
13.200000000000001 0.4 0.0
13.600000000000001 0.4 0.0
14.0 0.4 0.0
14.4 0.4 0.0
14.8 0.4 0.0
15.200000000000001 0.4 0.0
15.600000000000001 0.4 0.0
16.0 0.4 0.0
0.0 0.5 0.0
0.4 0.5 0.0
0.8 0.5 0.0
1.2000000000000002 0.5 0.0
1.6 0.5 0.0
2.0 0.5 0.0
2.4000000000000004 0.5 0.0
2.8000000000000003 0.5 0.0
3.2 0.5 0.0
3.6 0.5 0.0
4.0 0.5 0.0
4.4 0.5 0.0
4.800000000000001 0.5 0.0
5.2 0.5 0.0
5.6000000000000005 0.5 0.0
6.0 0.5 0.0
6.4 0.5 0.0
6.800000000000001 0.5 0.0
7.2 0.5 0.0
7.6000000000000005 0.5 0.0
8.0 0.5 0.0
8.4 0.5 0.0
8.8 0.5 0.0
9.200000000000001 0.5 0.0
9.600000000000001 0.5 0.0
10.0 0.5 0.0
10.4 0.5 0.0
10.8 0.5 0.0
11.200000000000001 0.5 0.0
11.600000000000001 0.5 0.0
12.0 0.5 0.0
12.4 0.5 0.0
12.8 0.5 0.0
13.200000000000001 0.5 0.0
13.600000000000001 0.5 0.0
14.0 0.5 0.0
14.4 0.5 0.0
14.8 0.5 0.0
15.200000000000001 0.5 0.0
15.600000000000001 0.5 0.0
16.0 0.5 0.0
0.0 0.6000000000000001 0.0
0.4 0.6000000000000001 0.0
0.8 0.6000000000000001 0.0
1.2000000000000002 0.6000000000000001 0.0
1.6 0.6000000000000001 0.0
2.0 0.6000000000000001 0.0
2.4000000000000004 0.6000000000000001 0.0
2.8000000000000003 0.6000000000000001 0.0
3.2 0.6000000000000001 0.0
3.6 0.6000000000000001 0.0
4.0 0.6000000000000001 0.0
4.4 0.6000000000000001 0.0
4.800000000000001 0.6000000000000001 0.0
5.2 0.6000000000000001 0.0
5.6000000000000005 0.6000000000000001 0.0
6.0 0.6000000000000001 0.0
6.4 0.6000000000000001 0.0
6.800000000000001 0.6000000000000001 0.0
7.2 0.6000000000000001 0.0
7.6000000000000005 0.6000000000000001 0.0
8.0 0.6000000000000001 0.0
8.4 0.6000000000000001 0.0
8.8 0.6000000000000001 0.0
9.200000000000001 0.6000000000000001 0.0
9.600000000000001 0.6000000000000001 0.0
10.0 0.6000000000000001 0.0
10.4 0.6000000000000001 0.0
10.8 0.6000000000000001 0.0
11.200000000000001 0.6000000000000001 0.0
11.600000000000001 0.6000000000000001 0.0
12.0 0.6000000000000001 0.0
12.4 0.6000000000000001 0.0
12.8 0.6000000000000001 0.0
13.200000000000001 0.6000000000000001 0.0
13.600000000000001 0.6000000000000001 0.0
14.0 0.6000000000000001 0.0
14.4 0.6000000000000001 0.0
14.8 0.6000000000000001 0.0
15.200000000000001 0.6000000000000001 0.0
15.600000000000001 0.6000000000000001 0.0
16.0 0.6000000000000001 0.0
0.0 0.7000000000000001 0.0
0.4 0.7000000000000001 0.0
0.8 0.7000000000000001 0.0
1.2000000000000002 0.7000000000000001 0.0
1.6 0.7000000000000001 0.0
2.0 0.7000000000000001 0.0
2.4000000000000004 0.7000000000000001 0.0
2.8000000000000003 0.7000000000000001 0.0
3.2 0.7000000000000001 0.0
3.6 0.7000000000000001 0.0
4.0 0.7000000000000001 0.0
4.4 0.7000000000000001 0.0
4.800000000000001 0.7000000000000001 0.0
5.2 0.7000000000000001 0.0
5.6000000000000005 0.7000000000000001 0.0
6.0 0.7000000000000001 0.0
6.4 0.7000000000000001 0.0
6.800000000000001 0.7000000000000001 0.0
7.2 0.7000000000000001 0.0
7.6000000000000005 0.7000000000000001 0.0
8.0 0.7000000000000001 0.0
8.4 0.7000000000000001 0.0
8.8 0.7000000000000001 0.0
9.200000000000001 0.7000000000000001 0.0
9.600000000000001 0.7000000000000001 0.0
10.0 0.7000000000000001 0.0
10.4 0.7000000000000001 0.0
10.8 0.7000000000000001 0.0
11.200000000000001 0.7000000000000001 0.0
11.600000000000001 0.7000000000000001 0.0
12.0 0.7000000000000001 0.0
12.4 0.7000000000000001 0.0
12.8 0.7000000000000001 0.0
13.200000000000001 0.7000000000000001 0.0
13.600000000000001 0.7000000000000001 0.0
14.0 0.7000000000000001 0.0
14.4 0.7000000000000001 0.0
14.8 0.7000000000000001 0.0
15.200000000000001 0.7000000000000001 0.0
15.600000000000001 0.7000000000000001 0.0
16.0 0.7000000000000001 0.0
0.0 0.8 0.0
0.4 0.8 0.0
0.8 0.8 0.0
1.2000000000000002 0.8 0.0
1.6 0.8 0.0
2.0 0.8 0.0
2.4000000000000004 0.8 0.0
2.8000000000000003 0.8 0.0
3.2 0.8 0.0
3.6 0.8 0.0
4.0 0.8 0.0
4.4 0.8 0.0
4.800000000000001 0.8 0.0
5.2 0.8 0.0
5.6000000000000005 0.8 0.0
6.0 0.8 0.0
6.4 0.8 0.0
6.800000000000001 0.8 0.0
7.2 0.8 0.0
7.6000000000000005 0.8 0.0
8.0 0.8 0.0
8.4 0.8 0.0
8.8 0.8 0.0
9.200000000000001 0.8 0.0
9.600000000000001 0.8 0.0
10.0 0.8 0.0
10.4 0.8 0.0
10.8 0.8 0.0
11.200000000000001 0.8 0.0
11.600000000000001 0.8 0.0
12.0 0.8 0.0
12.4 0.8 0.0
12.8 0.8 0.0
13.200000000000001 0.8 0.0
13.600000000000001 0.8 0.0
14.0 0.8 0.0
14.4 0.8 0.0
14.8 0.8 0.0
15.200000000000001 0.8 0.0
15.600000000000001 0.8 0.0
16.0 0.8 0.0
0.0 0.9 0.0
0.4 0.9 0.0
0.8 0.9 0.0
1.2000000000000002 0.9 0.0
1.6 0.9 0.0
2.0 0.9 0.0
2.4000000000000004 0.9 0.0
2.8000000000000003 0.9 0.0
3.2 0.9 0.0
3.6 0.9 0.0
4.0 0.9 0.0
4.4 0.9 0.0
4.800000000000001 0.9 0.0
5.2 0.9 0.0
5.6000000000000005 0.9 0.0
6.0 0.9 0.0
6.4 0.9 0.0
6.800000000000001 0.9 0.0
7.2 0.9 0.0
7.6000000000000005 0.9 0.0
8.0 0.9 0.0
8.4 0.9 0.0
8.8 0.9 0.0
9.200000000000001 0.9 0.0
9.600000000000001 0.9 0.0
10.0 0.9 0.0
10.4 0.9 0.0
10.8 0.9 0.0
11.200000000000001 0.9 0.0
11.600000000000001 0.9 0.0
12.0 0.9 0.0
12.4 0.9 0.0
12.8 0.9 0.0
13.200000000000001 0.9 0.0
13.600000000000001 0.9 0.0
14.0 0.9 0.0
14.4 0.9 0.0
14.8 0.9 0.0
15.200000000000001 0.9 0.0
15.600000000000001 0.9 0.0
16.0 0.9 0.0
0.0 1.0 0.0
0.4 1.0 0.0
0.8 1.0 0.0
1.2000000000000002 1.0 0.0
1.6 1.0 0.0
2.0 1.0 0.0
2.4000000000000004 1.0 0.0
2.8000000000000003 1.0 0.0
3.2 1.0 0.0
3.6 1.0 0.0
4.0 1.0 0.0
4.4 1.0 0.0
4.800000000000001 1.0 0.0
5.2 1.0 0.0
5.6000000000000005 1.0 0.0
6.0 1.0 0.0
6.4 1.0 0.0
6.800000000000001 1.0 0.0
7.2 1.0 0.0
7.6000000000000005 1.0 0.0
8.0 1.0 0.0
8.4 1.0 0.0
8.8 1.0 0.0
9.200000000000001 1.0 0.0
9.600000000000001 1.0 0.0
10.0 1.0 0.0
10.4 1.0 0.0
10.8 1.0 0.0
11.200000000000001 1.0 0.0
11.600000000000001 1.0 0.0
12.0 1.0 0.0
12.4 1.0 0.0
12.8 1.0 0.0
13.200000000000001 1.0 0.0
13.600000000000001 1.0 0.0
14.0 1.0 0.0
14.4 1.0 0.0
14.8 1.0 0.0
15.200000000000001 1.0 0.0
15.600000000000001 1.0 0.0
16.0 1.0 0.0
0.0 1.1 0.0
0.4 1.1 0.0
0.8 1.1 0.0
1.2000000000000002 1.1 0.0
1.6 1.1 0.0
[...]
POINT_DATA 861
SCALARS Disp float 2
LOOKUP_TABLE default
0.0 0.0
0.005187530307612448 -0.1936341694919506
0.006368721981087646 -0.3789273621112334
0.007123662916755723 -0.5633319522532052
0.008062639885814566 -0.7474121469078547
0.00948403972059661 -0.9308447801071462
0.011858634039194214 -1.1132098302526796
0.015734185650709755 -1.293987622850928
0.021746659155213566 -1.472533940244589
0.030585541417798418 -1.6480201447999168
0.04294784923189438 -1.819334855062062
0.05951981455289702 -1.985012195660757
0.08097149591478608 -2.143233208253663
0.1079489955672556 -2.2919019912556378
0.14107487766323598 -2.428710210618259
0.18088211739748453 -2.551185317445678
0.22768878399145995 -2.6567457611131915
0.28143994652185633 -2.742793152322673
0.3415645617268353 -2.806885543747259
0.4069052205375139 -2.8469752072039447
0.47559086283083263 -2.861651251727798
0.5442765051241475 -2.8469752072038577
0.6096171639348131 -2.806885543747082
0.6697417791397696 -2.742793152322417
0.7234929416701374 -2.6567457611128704
0.7702996082640824 -2.5511853174453125
0.8101068479982994 -2.428710210617857
0.8432327300942494 -2.2919019912552137
0.8702102297466876 -2.1432332082532275
0.8916619111085466 -1.9850121956603246
0.9082338764295227 -1.8193348550616437
0.9205961842435963 -1.6480201447995226
0.9294350665061641 -1.4725339402442243
0.9354475400106546 -1.2939876228505982
0.9393230916221613 -1.1132098302523885
0.9416976859407535 -0.9308447801068989
0.943119085775533 -0.7474121469076516
0.9440580627445911 -0.5633319522530488
0.944813003680259 -0.3789273621111228
0.9459941953537331 -0.19363416949188839
0.9511817256613422 0.0
0.04830473904020483 -0.0021975918269382653
0.0518792136904306 -0.1938408812157629
0.05250867441218821 -0.37898841786334364
0.05318225616183341 -0.5634167444712693
0.05401370561051177 -0.7475356693071432
0.05523266813051353 -0.9310995887393397
0.05728345216461615 -1.113720656208187
0.06068475922251162 -1.2949006796505584
0.0660345014740121 -1.4740117478742523
0.07396207924226526 -1.650227319491727
0.0850886894568918 -1.8224322359401688
0.10001181688211168 -1.9891568909334474
0.11931805488264076 -2.1485803663991656
0.1435971052201937 -2.298604416961217
0.17341994681523878 -2.4369116930230366
0.20928500177260265 -2.5609971301780603
0.2515010083174767 -2.66821098518389
0.3000449476389796 -2.7558491701521657
0.35443219435254686 -2.821334167310824
0.413588700752965 -2.8624624809541133
0.4755908628308219 -2.877561367554803
0.537593024908675 -2.8624624809540244
0.5967495313090813 -2.8213341673106433
0.6511367780226287 -2.755849170151904
0.6996807173441069 -2.668210985183563
0.7418967238889538 -2.5609971301776877
0.7777617788462893 -2.436911693022628
0.8075846204413067 -2.2986044169607855
0.8318636707788317 -2.1485803663987233
0.851169908779334 -1.9891568909330084
0.8660930362045297 -1.8224322359397447
0.8772196464191362 -1.6502273194913284
0.8851472241873736 -1.4740117478738843
0.8904969664388621 -1.2949006796502265
0.8938982734967496 -1.113720656207894
0.8959490575308474 -0.9310995887390916
0.8971680200508472 -0.7475356693069398
0.8979994694995251 -0.5634167444711128
0.8986730512491701 -0.3789884178632331
0.8993025119709277 -0.19384088121570037
0.9028769866211485 -0.002197591826935855
0.09570792182184032 -0.003928898107404543
0.09830512424956868 -0.19394132321966218
0.09866903166426753 -0.3790237522972944
0.0992197058290493 -0.5634919617613474
0.09995166448171533 -0.7476365136970453
0.10098903939547327 -0.9313015722992015
0.10272142770209257 -1.114142577851824
0.10565013747044472 -1.29568095237503
0.11032624428475021 -1.4753017610265289
0.11732206441664965 -1.6521760031111632
0.12718619977487447 -1.8251809662402088
0.14043593507366448 -1.9928414760953352
0.157577185545381 -2.1533374245538055
0.1791288456131314 -2.3045734290047353
0.20561453768583124 -2.4442251495045184
0.23749523750696494 -2.5697602564203543
0.27507708418301524 -2.6784704613068033
0.31838568038697884 -2.767558435473515
0.36702461003808584 -2.8343204433466056
0.4199947731242308 -2.8763766162539213
0.47559086283081164 -2.89186241783586
0.5311869525373888 -2.8763766162538307
0.584157115623523 -2.8343204433464213
0.6327960452746123 -2.7675584354732483
0.6761046414785546 -2.6784704613064703
0.7136864881545806 -2.569760256419976
0.7455671879756893 -2.444225149504103
0.7720528800483645 -2.3045734290042974
0.7936045401160902 -2.1533374245533565
0.810745790587783 -1.9928414760948905
0.8239955258865511 -1.8251809662397798
0.8338596612447583 -1.6521760031107604
0.8408554813766435 -1.4753017610261578
0.8455315881909383 -1.2956809523746957
0.8484602979592833 -1.11414257785153
0.8501926862658986 -0.9313015722989529
0.8512300611796553 -0.7476365136968418
0.8519620198323209 -0.5634919617611909
0.8525126939971026 -0.37902375229718394
0.8528766014118015 -0.19394132321959934
0.8554738038395249 -0.003928898107399557
0.14263887504304368 -0.0053149714220319085
0.14458532272761274 -0.19400926334516688
0.1448082495547706 -0.3790436084022617
0.14523946788439143 -0.5635538562654051
0.1458710176389783 -0.7477213657440345
0.1467494708435232 -0.931457526347254
0.14818139652513823 -1.1144783885464946
0.15064137835181465 -1.2963297221757715
0.15463997696696472 -1.4764020218895348
0.16069162310841378 -1.6538623708891336
0.16927643271024417 -1.8275764745852077
0.18083509719530036 -1.9960625864049673
0.19579727172923353 -2.157501542135846
0.21460950694117079 -2.30980388424233
0.23773328843077826 -2.450643484845528
0.2655989824872014 -2.577466281294091
0.29851327861372146 -2.6875161961938963
0.33655091339753834 -2.7779157570625146
0.3794093097043598 -2.845840013295014
0.42624172020873785 -2.8887485075500243
0.47559086283080165 -2.9046237674742397
0.524940005452862 -2.8887485075499324
0.5717724159572304 -2.845840013294826
0.6146308122640365 -2.7779157570622433
0.6526684470478346 -2.687516196193558
0.6855827431743333 -2.5774662812937064
0.7134484372307347 -2.4506434848451075
0.7365722187203203 -2.309803884241886
0.7553844539322359 -2.157501542135391
0.7703466284661484 -1.9960625864045167
0.7819052929511857 -1.827576474584774
0.7904901025530005 -1.6538623708887275
0.796541748694437 -1.476402021889161
0.8005403473095777 -1.2963297221754353
0.803000329136248 -1.1144783885461995
0.80443225481786 -0.9314575263470051
0.8053107080224038 -0.7477213657438307
0.8059422577769904 -0.5635538562652487
0.8063734761066113 -0.37904360840215123
0.8065964029337691 -0.19400926334510374
0.8085428506183336 -0.005314971422024582
0.18929849731621215 -0.006430682440000014
0.19076362764940388 -0.19406343920023753
0.19090934371573665 -0.37905501316807505
0.19123896373910168 -0.5636020079891801
0.19176895415647902 -0.7477927266787753
0.19250546976940403 -0.9315779491816792
0.19366921660067554 -1.1147347910944396
0.19566922732480596 -1.2968493564571881
0.1989940051224016 -1.4773131245310434
0.2040973432278287 -1.6552849241628735
0.21139438596918209 -1.8296169081912594
0.22125414659289722 -1.9988184146092511
0.2340296716282241 -2.161071596465077
0.25009526459356124 -2.31429463085099
0.26985333773603387 -2.456163225315568
0.29368832963829766 -2.5841097000142503
0.3219063919338928 -2.695340995504627
0.354633549527598 -2.7869121633402587
0.3916805186526009 -2.8558922304853054
0.4323973021520445 -2.8996006971779464
0.4755908628307919 -2.915884583098104
0.5187844235095362 -2.8996006971778527
0.5595012070089709 -2.855892230485115
0.5965481761339604 -2.7869121633399834
0.6292753337276492 -2.6953409955042837
0.6574933960232261 -2.584109700013861
0.6813283879254712 -2.4561632253151426
0.7010864610679247 -2.3142946308505405
0.7171520540332437 -2.1610715964646174
0.7299275790685528 -1.9988184146087964
0.7397873396922521 -1.8296169081908225
0.7470843824335918 -1.655284924162464
0.752187720539008 -1.477313124530667
0.7555124983365956 -1.2968493564568504
0.7575125090607211 -1.1147347910941436
0.7586762558919903 -0.93157794918143
0.7594127715049146 -0.7477927266785716
0.7599427619222916 -0.5636020079890236
0.7602723819456567 -0.37905501316796464
0.7604180980119895 -0.19406343920017408
0.7618832283451774 -0.00643068243999066
0.23577829424116475 -0.00732336029250304
0.2368702068208918 -0.19411003050612707
0.23697053001582427 -0.37906277389331744
0.23721560576573683 -0.5636374856429806
0.23764355698991893 -0.7478520375115248
0.23825101093047787 -0.9316711404022434
0.23917661837109916 -1.1149236696663647
0.24075120249356868 -1.2972443940093452
0.24340700009270852 -1.4780376551643604
0.24756627471456702 -1.6564448487181116
0.25357587734197284 -1.8313025149800388
0.2617361869271794 -2.0011097056673695
0.27232768554076525 -2.1640487111844373
0.28565143007814553 -2.3180467585809903
0.30204367532250265 -2.460785501000785
0.32185064031911326 -2.589689160994863
0.3453610922306964 -2.7019387186291457
0.37273930956572393 -2.7945383517977
0.4039315486323143 -2.8644731394478278
0.4385185120130648 -2.908943508676324
0.4755908628307821 -2.925667727155434
0.5126632136484965 -2.9089435086762285
0.5472501770292391 -2.8644731394476346
0.5784424160958181 -2.794538351797421
0.6058206334308318 -2.7019387186287993
0.6293310853423995 -2.5896891609944697
0.6491380503389942 -2.4607855010003554
0.6655302955833357 -2.318046758580537
0.6788540401207006 -2.1640487111839737
0.689445538734272 -2.001109705666911
0.6976058483194651 -1.8313025149795985
0.7036154509468595 -1.6564448487176995
0.707774725568709 -1.4780376551639818
0.7104305231678423 -1.2972443940090064
0.7120051072903082 -1.1149236696660683
0.7129307147309276 -0.9316711404019938
0.7135381686714862 -0.7478520375113211
0.713966119895668 -0.5636374856428242
0.7142111956455806 -0.37906277389320703
0.714311518840513 -0.19411003050606349
0.7154034314202371 -0.007323360292491929
0.2821271488676244 -0.008029360686991359
0.2829261153373505 -0.19415112570041015
0.2829963208325512 -0.3790693430393125
0.2831689714747596 -0.56366171416512
0.28349573563295977 -0.747899466216025
0.28398048489792427 -0.9317432168458106
0.28469378288957475 -1.1150586287001987
0.2858829382291177 -1.297527906504942
0.2879027951205517 -1.4785805979051165
0.2911266021159961 -1.6573457834079035
0.2958580981136693 -1.8326363526020053
0.3023271170071091 -2.002939503179456
0.3107446792689089 -2.16643675192089
0.3213404675259287 -2.3210647692794373
0.3343850366451273 -2.464513937403961
0.3501724608052252 -2.594207309931301
0.3689754043281239 -2.70730753071474
0.39098417649047623 -2.8007854946526063
0.4162664531650922 -2.871572507918625
0.4446637884867469 -2.9167744699980584
0.4755908628307721 -2.9339822591387965
0.5065179371747947 -2.9167744699979616
0.5349152724964428 -2.8715725079184296
0.5601975491710494 -2.8007854946523243
0.5822063213333903 -2.7073075307143903
0.6010092648562764 -2.5942073099309035
0.6167966890163613 -2.464513937403528
0.6298412581355475 -2.3210647692789803
0.6404370463925553 -2.1664367519204233
0.6488546086543435 -2.0029395031789945
0.6553236275477727 -1.8326363526015623
0.6600551235454366 -1.6573457834074894
0.663278930540874 -1.4785805979047364
0.6652987874323031 -1.2975279065046024
0.6664879427718433 -1.1150586286999018
0.6672012407634926 -0.931743216845561
0.6676859900284569 -0.7478994662158212
0.6680127541866567 -0.5636617141649636
0.6681854048288651 -0.3790693430392021
0.6682556103240658 -0.1941511257003464
0.6690545767937895 -0.008029360686978801
0.3283782000892449 -0.008577662579814705
0.3289470766752297 -0.19418844427987553
0.3289933043617375 -0.3790752538421149
0.32910055195834537 -0.5636760775876772
0.3293280863753406 -0.7479342837040526
0.32968915392055254 -0.9317984610572055
0.33021580820494056 -1.1151508662818834
0.33105762237558106 -1.2977170293000448
0.33248950607767047 -1.4789552873278358
0.3348116807576324 -1.6579948018539907
0.338280758862845 -1.833624255965128
0.3430736636974607 -2.004313665870774
0.34933672836457935 -2.1682425835911534
0.3572291285348717 -2.3233565699948007
0.3669521296207912 -2.4673567004626538
0.37874573293372055 -2.5976701675713043
0.39285542023402703 -2.7114497124612917
0.40948263557394704 -2.805647744799106
0.42879659935889175 -2.877174252059618
0.45090004664375904 -2.9230769351495764
0.47559086283076174 -2.940822908934146
0.5002816790177624 -2.9230769351494788
0.5223851263026246 -2.877174252059421
0.541699090087562 -2.805647744798822
0.558326305427473 -2.7114497124609396
0.5724359927277695 -2.597670167570904
0.5842295960406892 -2.4673567004622177
0.5939525971265995 -2.323356569994341
0.6018449972968831 -2.168242583590685
0.6081080619639936 -2.00431366587031
0.612900966798601 -1.8336242559646831
0.6163700449038069 -1.6579948018535748
0.6186922195837637 -1.4789552873274547
0.6201241032858497 -1.2977170292997042
0.6209659174564885 -1.1151508662815863
0.6214925717408758 -0.931798461056956
0.6218536392860874 -0.7479342837038486
0.6220811737030826 -0.5636760775875208
0.6221884212996904 -0.3790752538420045
0.6222346489861981 -0.1941884442798117
0.6228035255721812 -0.008577662579801021
0.37455089081349285 -0.008996060363156668
0.3749478754847007 -0.19422340992069653
0.3749674101769418 -0.3790797587003139
0.3750131950042387 -0.563681656648374
0.37514457120445577 -0.7479559730474643
0.3753775697289452 -0.931837759203604
0.375729073909797 -1.1152120096649178
0.376268060376141 -1.297830507742555
0.37716593989375224 -1.4791828726172211
0.3786416160628533 -1.658407848082706
0.38088627826342125 -1.8342769064247781
0.38403004225848253 -2.0052421375896565
0.3881637946894265 -2.169476943030108
0.39338534683645887 -2.3249344432528836
0.3998260022221208 -2.469326371652418
0.407661416411078 -2.6000886950883006
0.41710226330076694 -2.7143734305513423
0.42836230044623225 -2.8091240853162813
0.44165551729036445 -2.881258531779441
0.45730997971969645 -2.9278188428249714
0.47559086283075097 -2.9461686757132983
0.49387174594180433 -2.9278188428248724
0.5095262083711329 -2.8812585317792423
0.5228194252152596 -2.809124085315996
0.5340794623607185 -2.7143734305509883
0.5435203092504008 -2.6000886950878987
0.5513557234393511 -2.4693263716519804
0.5577963788250075 -2.3249344432524226
0.5630179309720345 -2.1694769430296375
0.5671516834029734 -2.005242137589191
0.5702954473980291 -1.8342769064243318
0.5725401095985929 -1.6584078480822888
0.5740157857676906 -1.47918287261684
0.5749136652853 -1.2978305077422139
0.5754526517516431 -1.1152120096646208
0.5758041559324945 -0.9318377592033543
0.5760371544569837 -0.7479559730472604
0.5761685306572008 -0.5636816566482176
0.5762143154844976 -0.37907975870020355
0.5762338501767384 -0.19422340992063267
0.5766308348479453 -0.008996060363142147
0.42065819474392785 -0.009313228775075155
0.4209351234071065 -0.19425794488744522
0.4209242247193559 -0.3790812898141263
0.4209107818303344 -0.5636792459856199
0.4209489582452383 -0.7479646424188735
0.4210520632296285 -0.9318597438635088
0.4212250291968789 -1.1152483649683091
0.4214936091129244 -1.2978897933468134
0.4219212163151352 -1.4792928746061518
0.4226229417191608 -1.6586135542194038
0.42370596121983795 -1.8346175190495073
0.4252480535112695 -2.0057441277406696
0.42728864304173814 -2.170157980188821
0.42987582531519825 -2.325817973090883
0.4330785695386182 -2.4704435193901517
0.4369999740227679 -2.6014814219867404
0.44180052075644083 -2.7160931453052997
0.44770431311576886 -2.811226102286015
0.45498327372721686 -2.883812404786512
0.4640211544579516 -2.9309510774378222
0.4755908628307398 -2.94997579966479
0.4871605712035277 -2.9309510774377228
0.4961984519342607 -2.8838124047863127
0.5034774125457053 -2.811226102285729
0.5093812049050296 -2.716093145304945
0.5141817516386993 -2.601481421986337
0.518103156122846 -2.4704435193897134
0.5213059003462637 -2.3258179730904205
0.5238930826197218 -2.1701579801883497
0.5259336721501883 -2.0057441277402033
0.5274757644416171 -1.8346175190490603
0.5285587839422926 -1.6586135542189862
0.529260509346317 -1.47929287460577
0.5296881165485271 -1.2978897933464724
0.5299566964645722 -1.1152483649680118
0.5301296624318224 -0.9318597438632591
0.5302327674162125 -0.7479646424186696
0.5302709438311165 -0.5636792459854635
0.5302575009420949 -0.3790812898140159
0.5302466022543443 -0.19425794488738138
0.5305235309175224 -0.009313228775060032
0.4667161693342108 -0.009553222483403529
0.4669086063237168 -0.1942937690097628
0.4668685717057132 -0.37907859905955404
0.4667977564875953 -0.5636693657472319
0.4667455784161912 -0.7479605416999761
0.4667193611851651 -0.9318638259165276
0.46670958663803824 -1.1152598088441155
0.46670690449418945 -1.2979089588003694
0.46670637777281093 -1.4793246507728035
0.46670657298167956 -1.6586671769588186
0.46670679651835595 -1.834704581629911
0.46670657688300093 -2.0058736305913314
0.466702699229167 -2.17033626403164
0.4666913213717635 -2.326055387043443
0.4666763724504293 -2.4707550284254305
0.46669433860143034 -2.6018916310515636
0.4668561932797783 -2.716645835091831
0.4674003840631134 -2.8119886616046443
0.4686919512438351 -2.884868483616609
0.4711431020962464 -2.9324351923827314
0.4755908628307283 -2.952176774299852
0.48003862356521076 -2.932435192382632
0.4824897744176216 -2.8848684836164096
0.4837813415983419 -2.811988661604357
0.48432553238167697 -2.7166458350914757
0.48448738706002575 -2.60189163105116
0.4845053532110271 -2.470755028424991
0.48449040428969387 -2.326055387042981
0.4844790264322917 -2.1703362640311683
0.48447514877845865 -2.0058736305908647
0.4844749291431046 -1.834704581629464
0.48447515267978175 -1.658667176958401
0.48447534788865065 -1.4793246507724216
0.48447482116727253 -1.297908958800028
0.48447213902342384 -1.1152598088438181
0.48446236447629704 -0.9318638259162779
0.4844361472452711 -0.7479605416997722
0.48438396917386706 -0.5636693657470755
0.4843131539557491 -0.3790785990594436
0.4842731193377456 -0.19429376900969905
0.4844655563272513 -0.009553222483388042
0.5127358670964945 -0.009738012112888748
0.5128705655739856 -0.19432933049936724
0.5128042687433707 -0.37907177840478873
0.5126788181962215 -0.5636522223929393
0.5125390246332615 -0.7479441205723693
0.5123856554532004 -0.931850002226645
0.5121940720607454 -1.1152457401070364
0.5119198736316296 -1.297889259715848
0.5114913639284264 -1.479292883838948
0.510790162867613 -1.6586136041626172
0.5097080368208207 -1.8346176515965391
0.5081651157492277 -2.0057433010056256
0.5061158870549989 -2.1701546120042967
0.5035058350064026 -2.325811366864752
0.5002749835424977 -2.470441043723374
0.4963923724089443 -2.60151325358614
0.49190905672723184 -2.7162338214325974
0.48702796994804576 -2.8116121224330177
0.4821288957839082 -2.8846097431721094
0.4777819195329339 -2.9323845567042763
0.47559086283071683 -2.9528836367004034
0.4733998061284995 -2.932384556704177
0.46905282987752533 -2.8846097431719095
0.4641537557133898 -2.8116121224327304
0.45927266893420793 -2.716233821432243
0.4547893532525004 -2.601513253585736
0.45090674211895077 -2.470441043722935
0.44767589065504987 -2.3258113668642904
0.4450658386064583 -2.1701546120038255
0.44301660991223407 -2.0057433010051597
0.4414736888406451 -1.8346176515960924
0.44039156279385616 -1.6586136041621997
0.4396903617330448 -1.4792928838385666
0.4392618520298428 -1.2978892597155067
0.43898765360072767 -1.115245740106739
0.43879607020827305 -0.9318500022263955
0.43864270102821235 -0.7479441205721655
0.43850290746525233 -0.5636522223927829
0.4383774569181032 -0.3790717784046782
0.43831116008748844 -0.19432933049930348
0.4384458585649793 -0.009738012112873055
0.5587320741048594 -0.00988024647068801
0.5588254990420639 -0.1943626287257217
0.5587355596687932 -0.37906117766349307
0.558558697811939 -0.5636281055917144
0.5583347759180002 -0.7479159872827013
0.5580572009707232 -0.9318186039683846
0.5576885284265227 -1.1152067915092252
0.5571446092437055 -1.2978294091435336
0.5562462382038242 -1.4791829238829262
0.5547718114752451 -1.6584081209845187
0.5525278620651826 -1.8342770124019596
0.5493825364834108 -2.0052401701976854
0.5452409825528179 -2.1694697870238784
0.5399997264085825 -2.3249209479868878
0.5335349373290603 -2.4693215260873447
0.5257363414508844 -2.600153447461459
0.5165875252862796 -2.7146540059535833
0.5062505001812754 -2.809879944044326
0.49514314327085696 -2.882848675251024