# vtk DataFile Version 3.0
Some data
ASCII
DATASET UNSTRUCTURED_GRID
POINTS 861 float
0.0 0.0 0.0
0.4 0.0 0.0
0.8 0.0 0.0
1.2000000000000002 0.0 0.0
1.6 0.0 0.0
2.0 0.0 0.0
2.4000000000000004 0.0 0.0
2.8000000000000003 0.0 0.0
3.2 0.0 0.0
3.6 0.0 0.0
4.0 0.0 0.0
4.4 0.0 0.0
4.800000000000001 0.0 0.0
5.2 0.0 0.0
5.6000000000000005 0.0 0.0
6.0 0.0 0.0
6.4 0.0 0.0
6.800000000000001 0.0 0.0
7.2 0.0 0.0
7.6000000000000005 0.0 0.0
8.0 0.0 0.0
8.4 0.0 0.0
8.8 0.0 0.0
9.200000000000001 0.0 0.0
9.600000000000001 0.0 0.0
10.0 0.0 0.0
10.4 0.0 0.0
10.8 0.0 0.0
11.200000000000001 0.0 0.0
11.600000000000001 0.0 0.0
12.0 0.0 0.0
12.4 0.0 0.0
12.8 0.0 0.0
13.200000000000001 0.0 0.0
13.600000000000001 0.0 0.0
14.0 0.0 0.0
14.4 0.0 0.0
14.8 0.0 0.0
15.200000000000001 0.0 0.0
15.600000000000001 0.0 0.0
16.0 0.0 0.0
0.0 0.1 0.0
0.4 0.1 0.0
0.8 0.1 0.0
1.2000000000000002 0.1 0.0
1.6 0.1 0.0
2.0 0.1 0.0
2.4000000000000004 0.1 0.0
2.8000000000000003 0.1 0.0
3.2 0.1 0.0
3.6 0.1 0.0
4.0 0.1 0.0
4.4 0.1 0.0
4.800000000000001 0.1 0.0
5.2 0.1 0.0
5.6000000000000005 0.1 0.0
6.0 0.1 0.0
6.4 0.1 0.0
6.800000000000001 0.1 0.0
7.2 0.1 0.0
7.6000000000000005 0.1 0.0
8.0 0.1 0.0
8.4 0.1 0.0
8.8 0.1 0.0
9.200000000000001 0.1 0.0
9.600000000000001 0.1 0.0
10.0 0.1 0.0
10.4 0.1 0.0
10.8 0.1 0.0
11.200000000000001 0.1 0.0
11.600000000000001 0.1 0.0
12.0 0.1 0.0
12.4 0.1 0.0
12.8 0.1 0.0
13.200000000000001 0.1 0.0
13.600000000000001 0.1 0.0
14.0 0.1 0.0
14.4 0.1 0.0
14.8 0.1 0.0
15.200000000000001 0.1 0.0
15.600000000000001 0.1 0.0
16.0 0.1 0.0
0.0 0.2 0.0
0.4 0.2 0.0
0.8 0.2 0.0
1.2000000000000002 0.2 0.0
1.6 0.2 0.0
2.0 0.2 0.0
2.4000000000000004 0.2 0.0
2.8000000000000003 0.2 0.0
3.2 0.2 0.0
3.6 0.2 0.0
4.0 0.2 0.0
4.4 0.2 0.0
4.800000000000001 0.2 0.0
5.2 0.2 0.0
5.6000000000000005 0.2 0.0
6.0 0.2 0.0
6.4 0.2 0.0
6.800000000000001 0.2 0.0
7.2 0.2 0.0
7.6000000000000005 0.2 0.0
8.0 0.2 0.0
8.4 0.2 0.0
8.8 0.2 0.0
9.200000000000001 0.2 0.0
9.600000000000001 0.2 0.0
10.0 0.2 0.0
10.4 0.2 0.0
10.8 0.2 0.0
11.200000000000001 0.2 0.0
11.600000000000001 0.2 0.0
12.0 0.2 0.0
12.4 0.2 0.0
12.8 0.2 0.0
13.200000000000001 0.2 0.0
13.600000000000001 0.2 0.0
14.0 0.2 0.0
14.4 0.2 0.0
14.8 0.2 0.0
15.200000000000001 0.2 0.0
15.600000000000001 0.2 0.0
16.0 0.2 0.0
0.0 0.30000000000000004 0.0
0.4 0.30000000000000004 0.0
0.8 0.30000000000000004 0.0
1.2000000000000002 0.30000000000000004 0.0
1.6 0.30000000000000004 0.0
2.0 0.30000000000000004 0.0
2.4000000000000004 0.30000000000000004 0.0
2.8000000000000003 0.30000000000000004 0.0
3.2 0.30000000000000004 0.0
3.6 0.30000000000000004 0.0
4.0 0.30000000000000004 0.0
4.4 0.30000000000000004 0.0
4.800000000000001 0.30000000000000004 0.0
5.2 0.30000000000000004 0.0
5.6000000000000005 0.30000000000000004 0.0
6.0 0.30000000000000004 0.0
6.4 0.30000000000000004 0.0
6.800000000000001 0.30000000000000004 0.0
7.2 0.30000000000000004 0.0
7.6000000000000005 0.30000000000000004 0.0
8.0 0.30000000000000004 0.0
8.4 0.30000000000000004 0.0
8.8 0.30000000000000004 0.0
9.200000000000001 0.30000000000000004 0.0
9.600000000000001 0.30000000000000004 0.0
10.0 0.30000000000000004 0.0
10.4 0.30000000000000004 0.0
10.8 0.30000000000000004 0.0
11.200000000000001 0.30000000000000004 0.0
11.600000000000001 0.30000000000000004 0.0
12.0 0.30000000000000004 0.0
12.4 0.30000000000000004 0.0
12.8 0.30000000000000004 0.0
13.200000000000001 0.30000000000000004 0.0
13.600000000000001 0.30000000000000004 0.0
14.0 0.30000000000000004 0.0
14.4 0.30000000000000004 0.0
14.8 0.30000000000000004 0.0
15.200000000000001 0.30000000000000004 0.0
15.600000000000001 0.30000000000000004 0.0
16.0 0.30000000000000004 0.0
0.0 0.4 0.0
0.4 0.4 0.0
0.8 0.4 0.0
1.2000000000000002 0.4 0.0
1.6 0.4 0.0
2.0 0.4 0.0
2.4000000000000004 0.4 0.0
2.8000000000000003 0.4 0.0
3.2 0.4 0.0
3.6 0.4 0.0
4.0 0.4 0.0
4.4 0.4 0.0
4.800000000000001 0.4 0.0
5.2 0.4 0.0
5.6000000000000005 0.4 0.0
6.0 0.4 0.0
6.4 0.4 0.0
6.800000000000001 0.4 0.0
7.2 0.4 0.0
7.6000000000000005 0.4 0.0
8.0 0.4 0.0
8.4 0.4 0.0
8.8 0.4 0.0
9.200000000000001 0.4 0.0
9.600000000000001 0.4 0.0
10.0 0.4 0.0
10.4 0.4 0.0
10.8 0.4 0.0
11.200000000000001 0.4 0.0
11.600000000000001 0.4 0.0
12.0 0.4 0.0
12.4 0.4 0.0
12.8 0.4 0.0
13.200000000000001 0.4 0.0
13.600000000000001 0.4 0.0
14.0 0.4 0.0
14.4 0.4 0.0
14.8 0.4 0.0
15.200000000000001 0.4 0.0
15.600000000000001 0.4 0.0
16.0 0.4 0.0
0.0 0.5 0.0
0.4 0.5 0.0
0.8 0.5 0.0
1.2000000000000002 0.5 0.0
1.6 0.5 0.0
2.0 0.5 0.0
2.4000000000000004 0.5 0.0
2.8000000000000003 0.5 0.0
3.2 0.5 0.0
3.6 0.5 0.0
4.0 0.5 0.0
4.4 0.5 0.0
4.800000000000001 0.5 0.0
5.2 0.5 0.0
5.6000000000000005 0.5 0.0
6.0 0.5 0.0
6.4 0.5 0.0
6.800000000000001 0.5 0.0
7.2 0.5 0.0
7.6000000000000005 0.5 0.0
8.0 0.5 0.0
8.4 0.5 0.0
8.8 0.5 0.0
9.200000000000001 0.5 0.0
9.600000000000001 0.5 0.0
10.0 0.5 0.0
10.4 0.5 0.0
10.8 0.5 0.0
11.200000000000001 0.5 0.0
11.600000000000001 0.5 0.0
12.0 0.5 0.0
12.4 0.5 0.0
12.8 0.5 0.0
13.200000000000001 0.5 0.0
13.600000000000001 0.5 0.0
14.0 0.5 0.0
14.4 0.5 0.0
14.8 0.5 0.0
15.200000000000001 0.5 0.0
15.600000000000001 0.5 0.0
16.0 0.5 0.0
0.0 0.6000000000000001 0.0
0.4 0.6000000000000001 0.0
0.8 0.6000000000000001 0.0
1.2000000000000002 0.6000000000000001 0.0
1.6 0.6000000000000001 0.0
2.0 0.6000000000000001 0.0
2.4000000000000004 0.6000000000000001 0.0
2.8000000000000003 0.6000000000000001 0.0
3.2 0.6000000000000001 0.0
3.6 0.6000000000000001 0.0
4.0 0.6000000000000001 0.0
4.4 0.6000000000000001 0.0
4.800000000000001 0.6000000000000001 0.0
5.2 0.6000000000000001 0.0
5.6000000000000005 0.6000000000000001 0.0
6.0 0.6000000000000001 0.0
6.4 0.6000000000000001 0.0
6.800000000000001 0.6000000000000001 0.0
7.2 0.6000000000000001 0.0
7.6000000000000005 0.6000000000000001 0.0
8.0 0.6000000000000001 0.0
8.4 0.6000000000000001 0.0
8.8 0.6000000000000001 0.0
9.200000000000001 0.6000000000000001 0.0
9.600000000000001 0.6000000000000001 0.0
10.0 0.6000000000000001 0.0
10.4 0.6000000000000001 0.0
10.8 0.6000000000000001 0.0
11.200000000000001 0.6000000000000001 0.0
11.600000000000001 0.6000000000000001 0.0
12.0 0.6000000000000001 0.0
12.4 0.6000000000000001 0.0
12.8 0.6000000000000001 0.0
13.200000000000001 0.6000000000000001 0.0
13.600000000000001 0.6000000000000001 0.0
14.0 0.6000000000000001 0.0
14.4 0.6000000000000001 0.0
14.8 0.6000000000000001 0.0
15.200000000000001 0.6000000000000001 0.0
15.600000000000001 0.6000000000000001 0.0
16.0 0.6000000000000001 0.0
0.0 0.7000000000000001 0.0
0.4 0.7000000000000001 0.0
0.8 0.7000000000000001 0.0
1.2000000000000002 0.7000000000000001 0.0
1.6 0.7000000000000001 0.0
2.0 0.7000000000000001 0.0
2.4000000000000004 0.7000000000000001 0.0
2.8000000000000003 0.7000000000000001 0.0
3.2 0.7000000000000001 0.0
3.6 0.7000000000000001 0.0
4.0 0.7000000000000001 0.0
4.4 0.7000000000000001 0.0
4.800000000000001 0.7000000000000001 0.0
5.2 0.7000000000000001 0.0
5.6000000000000005 0.7000000000000001 0.0
6.0 0.7000000000000001 0.0
6.4 0.7000000000000001 0.0
6.800000000000001 0.7000000000000001 0.0
7.2 0.7000000000000001 0.0
7.6000000000000005 0.7000000000000001 0.0
8.0 0.7000000000000001 0.0
8.4 0.7000000000000001 0.0
8.8 0.7000000000000001 0.0
9.200000000000001 0.7000000000000001 0.0
9.600000000000001 0.7000000000000001 0.0
10.0 0.7000000000000001 0.0
10.4 0.7000000000000001 0.0
10.8 0.7000000000000001 0.0
11.200000000000001 0.7000000000000001 0.0
11.600000000000001 0.7000000000000001 0.0
12.0 0.7000000000000001 0.0
12.4 0.7000000000000001 0.0
12.8 0.7000000000000001 0.0
13.200000000000001 0.7000000000000001 0.0
13.600000000000001 0.7000000000000001 0.0
14.0 0.7000000000000001 0.0
14.4 0.7000000000000001 0.0
14.8 0.7000000000000001 0.0
15.200000000000001 0.7000000000000001 0.0
15.600000000000001 0.7000000000000001 0.0
16.0 0.7000000000000001 0.0
0.0 0.8 0.0
0.4 0.8 0.0
0.8 0.8 0.0
1.2000000000000002 0.8 0.0
1.6 0.8 0.0
2.0 0.8 0.0
2.4000000000000004 0.8 0.0
2.8000000000000003 0.8 0.0
3.2 0.8 0.0
3.6 0.8 0.0
4.0 0.8 0.0
4.4 0.8 0.0
4.800000000000001 0.8 0.0
5.2 0.8 0.0
5.6000000000000005 0.8 0.0
6.0 0.8 0.0
6.4 0.8 0.0
6.800000000000001 0.8 0.0
7.2 0.8 0.0
7.6000000000000005 0.8 0.0
8.0 0.8 0.0
8.4 0.8 0.0
8.8 0.8 0.0
9.200000000000001 0.8 0.0
9.600000000000001 0.8 0.0
10.0 0.8 0.0
10.4 0.8 0.0
10.8 0.8 0.0
11.200000000000001 0.8 0.0
11.600000000000001 0.8 0.0
12.0 0.8 0.0
12.4 0.8 0.0
12.8 0.8 0.0
13.200000000000001 0.8 0.0
13.600000000000001 0.8 0.0
14.0 0.8 0.0
14.4 0.8 0.0
14.8 0.8 0.0
15.200000000000001 0.8 0.0
15.600000000000001 0.8 0.0
16.0 0.8 0.0
0.0 0.9 0.0
0.4 0.9 0.0
0.8 0.9 0.0
1.2000000000000002 0.9 0.0
1.6 0.9 0.0
2.0 0.9 0.0
2.4000000000000004 0.9 0.0
2.8000000000000003 0.9 0.0
3.2 0.9 0.0
3.6 0.9 0.0
4.0 0.9 0.0
4.4 0.9 0.0
4.800000000000001 0.9 0.0
5.2 0.9 0.0
5.6000000000000005 0.9 0.0
6.0 0.9 0.0
6.4 0.9 0.0
6.800000000000001 0.9 0.0
7.2 0.9 0.0
7.6000000000000005 0.9 0.0
8.0 0.9 0.0
8.4 0.9 0.0
8.8 0.9 0.0
9.200000000000001 0.9 0.0
9.600000000000001 0.9 0.0
10.0 0.9 0.0
10.4 0.9 0.0
10.8 0.9 0.0
11.200000000000001 0.9 0.0
11.600000000000001 0.9 0.0
12.0 0.9 0.0
12.4 0.9 0.0
12.8 0.9 0.0
13.200000000000001 0.9 0.0
13.600000000000001 0.9 0.0
14.0 0.9 0.0
14.4 0.9 0.0
14.8 0.9 0.0
15.200000000000001 0.9 0.0
15.600000000000001 0.9 0.0
16.0 0.9 0.0
0.0 1.0 0.0
0.4 1.0 0.0
0.8 1.0 0.0
1.2000000000000002 1.0 0.0
1.6 1.0 0.0
2.0 1.0 0.0
2.4000000000000004 1.0 0.0
2.8000000000000003 1.0 0.0
3.2 1.0 0.0
3.6 1.0 0.0
4.0 1.0 0.0
4.4 1.0 0.0
4.800000000000001 1.0 0.0
5.2 1.0 0.0
5.6000000000000005 1.0 0.0
6.0 1.0 0.0
6.4 1.0 0.0
6.800000000000001 1.0 0.0
7.2 1.0 0.0
7.6000000000000005 1.0 0.0
8.0 1.0 0.0
8.4 1.0 0.0
8.8 1.0 0.0
9.200000000000001 1.0 0.0
9.600000000000001 1.0 0.0
10.0 1.0 0.0
10.4 1.0 0.0
10.8 1.0 0.0
11.200000000000001 1.0 0.0
11.600000000000001 1.0 0.0
12.0 1.0 0.0
12.4 1.0 0.0
12.8 1.0 0.0
13.200000000000001 1.0 0.0
13.600000000000001 1.0 0.0
14.0 1.0 0.0
14.4 1.0 0.0
14.8 1.0 0.0
15.200000000000001 1.0 0.0
15.600000000000001 1.0 0.0
16.0 1.0 0.0
0.0 1.1 0.0
0.4 1.1 0.0
0.8 1.1 0.0
1.2000000000000002 1.1 0.0
1.6 1.1 0.0
[...]
POINT_DATA 861
SCALARS Disp float 2
LOOKUP_TABLE default
0.0 0.0
0.006229483768806259 -0.2948869010839706
0.007668402655228542 -0.5799659765550024
0.008477316102998286 -0.8638780698419465
0.009555356052517781 -1.1473855225934426
0.011385572303030283 -1.4300081143338905
0.014706906720802515 -1.7110997981514795
0.02043826102905436 -1.9898445353645176
0.02966517341299843 -2.2652158923387193
0.04356900096394211 -2.5358633490574314
0.06331930462146726 -2.7999567931638416
0.08999873613650167 -3.0551087480736636
0.12456872814572877 -3.298424308245074
0.16785875678543255 -3.526637456964699
0.22055733496289007 -3.736204781096338
0.28314074918268123 -3.9233861993407952
0.35575106037883814 -4.084353422353444
0.43805602219296935 -4.21536021802332
0.529135811734228 -4.313001704852498
0.627444615651378 -4.374468371606359
0.7305424504553918 -4.397883499177638
0.8336402852593995 -4.37446837160622
0.9319490891765281 -4.313001704852216
1.0230288787177504 -4.215360218022912
1.1053338405318354 -4.084353422352933
1.1779441517279428 -3.9233861993402126
1.2405275659476835 -3.7362047810956995
1.2932261441250903 -3.526637456964022
1.3365161727647432 -3.2984243082443814
1.3710861647739225 -3.055108748072976
1.3977655962889144 -2.799956793163179
1.4175158999464044 -2.5358633490568083
1.4314197274973208 -2.2652158923381442
1.4406466398812445 -1.9898445353639986
1.4463779941894828 -1.711099798151023
1.4496993286072464 -1.4300081143335037
1.451529544857755 -1.1473855225931264
1.4526075848072733 -0.863878069841705
1.4534164982550428 -0.579965976554834
1.4548554171414634 -0.2948869010838783
1.4610849009102664 0.0
0.07355298119593635 -0.0025644891397348306
0.07795319180027566 -0.29519390614961827
0.07869457827888264 -0.5800299059436572
0.07940775691930671 -0.8639716013587557
0.0803460966401095 -1.1475499349598752
0.08189287863200147 -1.430388449918926
0.08474283599317432 -1.7119025433069723
0.0897632457164544 -1.9913171572662982
0.09797209936324462 -2.267635101377375
0.11044649912552795 -2.539510719979211
0.12822955812237516 -2.80509799881905
0.15227270130040743 -3.061983444270322
0.18342687861636547 -3.307244413481132
0.22244496511929046 -3.537585549616179
0.26995448253126136 -3.7494253419527594
0.3263999087707302 -3.9389624050335508
0.3919358051217346 -4.102274657479896
0.4663023720615062 -4.235490180379022
0.548709579988481 -4.3350526677764885
0.6376680217666892 -4.3979714922068185
0.7305424504553748 -4.421990446798123
0.8234168791440539 -4.3979714922066755
0.9123753209222427 -4.3350526677762
0.9947825288491854 -4.235490180378605
1.069149095788917 -4.102274657479375
1.1346849921398772 -3.9389624050329566
1.1911304183793003 -3.7494253419521093
1.2386399357912254 -3.5375855496154904
1.2776580222941047 -3.3072444134804275
1.3088121996100202 -3.0619834442696243
1.3328553427880139 -2.805097998818378
1.3506384017848292 -2.5395107199785802
1.3631128015470877 -2.267635101376794
1.3713216551938596 -1.9913171572657755
1.3763420649171272 -1.7119025433065134
1.3791920222782927 -1.4303884499185384
1.3807388042701816 -1.1475499349595588
1.3816771439909834 -0.8639716013585141
1.3823903226314074 -0.5800299059434888
1.3831317091100142 -0.2951939061495256
1.3875319197143476 -0.002564489139732307
0.14607006522809726 -0.004611936989840521
0.14931877263218613 -0.295348180875769
0.14974035423743826 -0.5800610178387563
0.1503205811466933 -0.8640534677710738
0.1511305193401488 -1.1476792553478299
0.15242243511512066 -1.4306894337743254
0.15481368976538773 -1.7125691961615923
0.15912615989026582 -1.9925838439550974
0.16629831623315355 -2.2697580292487203
0.17730611869180218 -2.542743440405095
0.19307261658635216 -2.809674698461941
0.21442847468874077 -3.0681137347732848
0.2421159086663242 -3.3151161553817463
0.27680012535218884 -3.547364269336014
0.3190522848056702 -3.7612436748891716
0.36928843331309513 -3.95290119219733
0.4276881207301039 -4.118335374361216
0.4940793897183366 -4.253563017793717
0.5677833428943143 -4.354879528847313
0.6473719245469748 -4.419070474393408
0.730542450455358 -4.443628330049369
0.8137129763637354 -4.419070474393261
0.8933015580163784 -4.354879528847017
0.9670055111923278 -4.253563017793291
1.0333967801805253 -4.118335374360684
1.0917964675974952 -3.952901192196725
1.1420326161048793 -3.76124367488851
1.1842847755583195 -3.5473642693353145
1.2189689922441438 -3.3151161553810318
1.2466564262216897 -3.0681137347725773
1.268012284324044 -2.8096746984612606
1.2837787822185656 -2.542743440404458
1.294786584677192 -2.2697580292481345
1.301958741020063 -1.992583843954571
1.3062712111449302 -1.7125691961611311
1.308662465795191 -1.4306894337739366
1.3099543815701604 -1.147679255347513
1.3107643197636154 -0.8640534677708323
1.3113445466728704 -0.5800610178385881
1.3117661282781226 -0.29534818087567594
1.3150148356822056 -0.004611936989835166
0.21803767361104653 -0.0062627899643842005
0.22050751696243176 -0.29545341867971464
0.22076347166033433 -0.5800778102488351
0.22121663308956924 -0.8641186962076604
0.22190401409482155 -1.1477825175938456
0.22297118867613844 -1.4309200671132423
0.22493034268160844 -1.713104378294103
0.22854387894435446 -1.9936453928367652
0.23467285699380128 -2.2715803735560685
0.24419270684335118 -2.5455537735106795
0.2579116337770731 -2.813677337264078
0.2765439651258161 -3.0734900630854463
0.30072733268182744 -3.322029388537646
0.3310383193909907 -3.5559609382651525
0.36798212156972954 -3.7716454306904126
0.4119534921231393 -3.9651882515427777
0.4631611782837533 -4.13252340904597
0.5215184729711779 -4.269569477514894
0.5864687474608092 -4.37247275533301
0.6567910252240579 -4.4378213805089555
0.7305424504553419 -4.4629233200385805
0.8042938756866207 -4.437821380508806
0.8746161534498532 -4.372472755332709
0.9395664279394598 -4.26956947751446
0.9979237226268538 -4.13252340904543
1.0491314087874337 -3.965188251542163
1.0931027793408075 -3.7716454306897416
1.1300465815195104 -3.5559609382644437
1.1603575682286384 -3.3220293885369223
1.184540935784617 -3.0734900630847304
1.2031732671333302 -2.813677337263391
1.216892194067027 -2.5455537735100364
1.2264120439165573 -2.271580373555478
1.2325410219659894 -1.993645392836236
1.2361545582287257 -1.7131043782936397
1.238113712234191 -1.430920067112853
1.2391808868155059 -1.1477825175935288
1.239868267820758 -0.8641186962074189
1.240321429249993 -0.5800778102486668
1.2405773839478957 -0.29545341867962116
1.2430472272992754 -0.006262789964376207
0.28969304580969724 -0.007600696446694418
0.29157711692946064 -0.29553461912080803
0.2917436234240541 -0.5800873810307325
0.29209047999628635 -0.86416897171592
0.2926625767658909 -1.147864932428178
0.29353169788174777 -1.4310932066667446
0.29510038618443635 -1.7135169267291794
0.2980320676311785 -1.9945049161793198
0.30312503020882764 -2.2731019091063387
0.3111509076078896 -2.5479382786920004
0.3228078395674357 -2.8171010023240344
0.33869813281743344 -3.078106470278417
0.359354335975592 -3.32797769564187
0.38526635690132877 -3.5633685051236585
0.41687735424542366 -3.780621529016577
0.45454775277880477 -3.975812483406906
0.49850995976068796 -4.14482543072005
0.5487656135881811 -4.2834944299319
0.6049250570852946 -4.38783479084579
0.6660405874720519 -4.45426666470092
0.7305424504553262 -4.479943348461614
0.7950443134385956 -4.454266664700769
0.8561598438253379 -4.387834790845485
0.91231928732243 -4.283494429931459
0.9625749411498972 -4.144825430719503
1.0065371481317507 -3.975812483406283
1.0442075466651006 -3.7806215290158978
1.0758185440091645 -3.563368505122942
1.1017305649348714 -3.3279776956411387
1.1223867680930018 -3.078106470277694
1.1382770613429745 -2.8171010023233407
1.1499339933024988 -2.5479382786913525
1.1579598707015437 -2.2731019091057445
1.1630528332791803 -1.994504916178788
1.1659845147259147 -1.713516926728715
1.1675532030285996 -1.4310932066663549
1.1684223241444551 -1.1478649324278611
1.1689944209140595 -0.8641689717156785
1.1693412774862917 -0.5800873810305642
1.1695077839808852 -0.2955346191207142
1.1713918551006441 -0.0076006964466841
0.3611428217484799 -0.008678685190365087
0.3625639790427268 -0.2956002222637333
0.3626788366940054 -0.5800944229611337
0.3629386445771874 -0.864206277390601
0.3634007675462639 -1.1479307027408914
0.36409786959017654 -1.4312209461915848
0.36531735590032527 -1.7138211555920924
0.36761273385161775 -1.9951691812153742
0.3716841318829849 -2.2743258618618376
0.3782251589857321 -2.5498979442864194
0.3878220345757162 -2.8199449721766765
0.4009676592875784 -3.0819615376773517
0.4180924403854881 -3.3329589050552606
0.4395984911359502 -3.5695841869142466
0.4658642119780181 -3.7881688411905703
0.497220017726309 -3.9847674270875455
0.5339015909328599 -4.155228513018064
0.5759910095226135 -4.295323098659499
0.6233028141413339 -4.400963413602358
0.675212687900932 -4.46842825661353
0.7305424504553102 -4.4947287809982965
0.7858722130096841 -4.468428256613375
0.8377820867692692 -4.400963413602049
0.8850938913879713 -4.295323098659053
0.9271833099777029 -4.1552285130175095
0.9638648831842284 -3.984767427086916
0.9952206889324934 -3.788168841189884
1.0214864097745353 -3.5695841869135227
1.0429924605249727 -3.3329589050545225
1.0601172416228593 -3.0819615376766225
1.0732628663347006 -2.819944972175978
1.0828597419246666 -2.5498979442857665
1.0894007690273995 -2.2743258618612403
1.0934721670587566 -1.9951691812148402
1.0957675450100428 -1.713821155591627
1.0969870313201888 -1.4312209461911947
1.0976841333641005 -1.1479307027405743
1.098146256333177 -0.8642062773903595
1.0984060642163591 -0.5800944229609655
1.0985209218676373 -0.29560022226363913
1.0999420791618808 -0.008678685190352817
0.4324422916037366 -0.009537263291870003
0.4334928225483632 -0.2956536349142724
0.433574668922711 -0.5801012861528477
0.43376090390166094 -0.8642321688540406
0.43411607097577937 -1.147982494836677
0.4346612855341799 -1.4313140296023863
0.4355726218387698 -1.7140345446855167
0.437285852560315 -1.9956536344010039
0.4403826358260337 -2.2752596314810356
0.4454605481437736 -2.5514378930295716
0.4530155992787066 -2.822213184968883
0.4634311529733294 -3.0850583884201384
0.4770368285060495 -3.3369757618114337
0.4941480640366625 -3.5746102750233035
0.5150784822370758 -3.79428847342781
0.5401192542005284 -3.9920519017021374
0.5695045618413607 -4.163724791553504
0.603380582264118 -4.305040426821097
0.6417638724799182 -4.411845976010471
0.6843980220429018 -4.480307753406313
0.7305424504552941 -4.507297457533455
0.7766868788676827 -4.480307753406158
0.8193210284306555 -4.411845976010158
0.8577043186464401 -4.3050404268206455
0.8915803390691797 -4.163724791552944
0.9209656467099911 -3.992051901701502
0.9460064186734226 -3.7942884734271183
0.9669368368738152 -3.5746102750225743
0.9840480724044091 -3.3369757618106903
0.9976537479371106 -3.0850583884194047
1.0080693016317168 -2.82221318496818
1.0156243527666353 -2.5514378930289157
1.020702265084364 -2.2752596314804356
1.023799048350075 -1.9956536344004685
1.0255122790716154 -1.7140345446850502
1.0264236153762034 -1.431314029601996
1.0269688299346036 -1.1479824948363602
1.0273239970087218 -0.864232168853799
1.0275102319876717 -0.5801012861526793
1.0275920783620194 -0.2956536349141782
1.0286426093066432 -0.009537263291856104
0.503627980690561 -0.010209175495134728
0.5043820285277453 -0.2956974116445797
0.5044391428907936 -0.5801084594418981
0.5045593446851078 -0.8642478969628755
0.5048090982470319 -1.148020985980404
0.5052127500926651 -1.4313810789413899
0.5058603374239948 -1.7141748368707044
0.5070488609559605 -1.9959795005647385
0.5092374451367321 -2.275919672363704
0.5129050802268346 -2.5525684526221015
0.5184519928912787 -2.8239141930663787
0.5261671631772384 -3.0874050939351396
0.5362851548139697 -3.3400364203849273
0.5490324845860278 -3.5784544383663657
0.5646526320649878 -3.7989870677823885
0.5833988536103348 -3.997670205996531
0.6054973215355822 -4.170312817793144
0.6311288930641593 -4.312633192900029
0.6604850725141022 -4.42045856103697
0.6936984961607224 -4.489884558746601
0.7305424504552773 -4.517644609772898
0.7673864047498297 -4.489884558746444
0.8005998283964416 -4.420458561036654
0.8299560078463724 -4.312633192899575
0.8555875793749351 -4.170312817792581
0.8776860473001667 -3.9976702059958904
0.8964322688454973 -3.7989870677816917
0.9120524163244423 -3.5784544383656325
0.924799746096487 -3.340036420384179
0.9349177377332041 -3.0874050939344024
0.9426329080191513 -2.823914193065673
0.948179820683585 -2.5525684526214425
0.9518474557736794 -2.275919672363102
0.9540360399544454 -1.995979500564202
0.955224563486408 -1.714174836870237
0.9558721508177365 -1.4313810789409995
0.9562758026633693 -1.1480209859800874
0.9565255562252934 -0.8642478969626338
0.9566457580196074 -0.5801084594417296
0.9567028723826556 -0.2956974116444854
0.9574569202198379 -0.010209175495119491
0.5747226530421615 -0.010724936079955909
0.5752484326666368 -0.2957338831544673
0.5752796660751525 -0.5801151033954348
0.5753374197738982 -0.8642544414171682
0.5754838321890201 -1.1480456271977897
0.5757464878479999 -1.4314272538744746
0.5761644076472916 -1.7142609312269173
0.5768971692294742 -1.9961730602801167
0.5782567412226747 -2.276331757239187
0.5805935545553222 -2.5533096120502665
0.5841953915263296 -2.8250630701020514
0.5892608853122232 -3.089015759091189
0.5959379130675823 -3.342155232211228
0.6043705359995234 -3.5811309892798837
0.6147274244987176 -3.8022771330577183
0.6272125336982083 -4.001632741563401
0.6420499888626392 -4.175000399533287
0.659450786191586 -4.318094463040554
0.67968343012757 -4.426767654717789
0.7032430010426286 -4.497112610441385
0.7305424504552601 -4.525739939931343
0.75784189986789 -4.497112610441227
0.7814014707829431 -4.426767654717471
0.8016341147189188 -4.318094463040098
0.8190349120478546 -4.175000399532721
0.8338723672122751 -4.001632741562757
0.8463574764117547 -3.8022771330570184
0.8567143649109396 -3.5811309892791474
0.8651469878428721 -3.3421552322104775
0.8718240155982224 -3.0890157590904486
0.8768895093841079 -2.825063070101343
0.8804913463551084 -2.553309612049606
0.8828281596877507 -2.2763317572385837
0.8841877316809479 -1.9961730602795795
0.8849204932631287 -1.71426093122645
0.88533841306242 -1.431427253874084
0.8856010687213994 -1.1480456271974728
0.8857474811365214 -0.8642544414169265
0.885805234835267 -0.5801151033952664
0.8858364682437825 -0.29573388315437293
0.8863622478682565 -0.010724936079939653
0.6457430177098165 -0.011114755609638188
0.6461028148157246 -0.2957659277461479
0.6461032049899993 -0.5801193613149923
0.6460992384058425 -0.8642525410522354
0.64614509932519 -1.1480560100281672
0.6462629066808085 -1.4314535688512424
0.6464677275912156 -1.7143080935130393
0.6468138382228213 -1.9962667772313112
0.6474407018920272 -2.276533752767436
0.6485496435242156 -2.553695213533474
0.6502983276683018 -2.825687821460732
0.6527916590358197 -3.089914808077865
0.6560931064799 -3.3433555317238204
0.6602736927567976 -3.5826637337977596
0.6654300983465955 -3.8041811109392403
0.6717038225673532 -4.003957473795263
0.6793034458665463 -4.177803446196993
0.6884998605945322 -4.321435975242671
0.6996074125241649 -4.430744442908403
0.713228670077292 -4.501915151126726
0.7305424504552427 -4.5315170167656875
0.7478562308331923 -4.501915151126567
0.7614774883863168 -4.430744442908084
0.7725850403159441 -4.321435975242213
0.7817814550439232 -4.1778034461964255
0.7893810783431114 -4.0039574737946175
0.7956548025638644 -3.8041811109385386
0.8008112081536584 -3.5826637337970224
0.8049917944305528 -3.343355531723069
0.8082932418746294 -3.0899148080771233
0.8107865732421439 -2.8256878214600225
0.8125352573862269 -2.553695213532812
0.8136441990184134 -2.276533752766832
0.8142710626876175 -1.9962667772307736
0.8146171733192227 -1.7143080935125723
0.8148219942296296 -1.4314535688508516
0.814939801585248 -1.14805601002785
0.8149856625045955 -0.8642525410519937
0.8149816959204387 -0.5801193613148239
0.8149820860947132 -0.2957659277460535
0.8153418832006205 -0.011114755609621194
0.7167071143539765 -0.01140502815671536
0.7169494167144036 -0.2957968508130598
0.7169149307618642 -0.5801191610778103
0.7168494934202139 -0.8642426391685342
0.7167972846624616 -1.148052174608951
0.7167702957690867 -1.431459238650479
0.7167596106127903 -1.714322817118212
0.7167555078843223 -1.9962939117113145
0.7167537930098623 -2.2765854364893277
0.7167535669555295 -2.553791987595584
0.7167536106433621 -2.8258490951874133
0.716751478656427 -3.0901566889035346
0.7167405845678261 -3.343689414611852
0.7167194687871189 -3.58310292496574
0.7167099217944225 -3.804746916070174
0.7167932059394773 -4.004686556678339
0.7171566836494404 -4.178756685095254
0.7181411317827067 -4.3226988782947116
0.7202079855794044 -4.432417999144518
0.7238735028200971 -4.5042148030732125
0.7305424504552244 -4.534861031440204
0.7372113980903514 -4.5042148030730536
0.7408769153310438 -4.4324179991441985
0.74294376912774 -4.322698878294252
0.7439282172610049 -4.178756685094685
0.7442916949709694 -4.004686556677694
0.7443749791160251 -3.804746916069471
0.7443654321233301 -3.583102924965002
0.7443443163426249 -3.3436894146111005
0.7443334222540257 -3.0901566889027925
0.7443312902670923 -2.8258490951867032
0.7443313339549257 -2.553791987594922
0.7443311079005935 -2.276585436488724
0.7443293930261337 -1.9962939117107767
0.7443252902976658 -1.7143228171177454
0.7443146051413696 -1.4314592386500884
0.7442876162479948 -1.1480521746086338
0.7442354074902426 -0.8642426391682925
0.7441699701485924 -0.5801191610776417
0.7441354841960527 -0.2957968508129654
0.7443777865564795 -0.011405028156697831
0.7876263861570492 -0.011621865952003898
0.7877870322786957 -0.29582795275811175
0.7877194506172428 -0.580113520926894
0.787593486079364 -0.864224904986038
0.7874458483687848 -1.1480344839625591
0.787276293178148 -1.4314439741416247
0.787050530488786 -1.7143055560380385
0.7866958546995525 -1.9962658936893938
0.7860662106633451 -2.2765334840613787
0.7849573759553158 -2.55369519947374
0.7832089346952787 -2.8256875371769348
0.7807097004285335 -3.0899117945555648
0.777385808866222 -3.343347643150979
0.7731647943905997 -3.58265417341763
0.7679948832918962 -3.8041910548489914
0.7618948689806555 -4.004045472914785
0.7550140494521562 -4.178087308724094
0.7476930505828555 -4.322103271472338
0.7404456769787858 -4.432001401620859
0.7340130615844392 -4.504126604088231
0.7305424504552055 -4.535859265132595
0.727071839325971 -4.504126604088071
0.7206392239316249 -4.432001401620539
0.7133918503275594 -4.322103271471879
0.7060708514582644 -4.178087308723526
0.6991900319297727 -4.00404547291414
0.6930900176185385 -3.80419105484829
0.687920106519842 -3.582654173416893
0.6836990920442266 -3.3433476431502287
0.6803752004819227 -3.0899117945548245
0.677875966215184 -2.825687537176225
0.6761275249551523 -2.5536951994730783
0.6750186902471259 -2.2765334840607756
0.6743890462109206 -1.996265893688856
0.674034370421688 -1.7143055560375717
0.6738086077323268 -1.431443974141234
0.67363905254169 -1.148034483962242
0.673491414831111 -0.8642249049857965
0.6733654502932322 -0.5801135209267254
0.6732978686317793 -0.29582795275801743
0.6734585147534256 -0.011621865951986091
0.8585115359112305 -0.011786421370084444
0.8586176039940778 -0.29585780788446925
0.8585205862149448 -0.5801027384662572
0.8583367610596121 -0.8641994661843606
0.8580970897482461 -1.148003542320992
0.8577886413264554 -1.4314082115005926
0.8573498498751806 -1.7142555471243541
0.8566094901496629 -1.9961710582813772
0.8552490784802981 -2.276331344548583
0.8529135655003351 -2.5533097291945945
0.8493111920157568 -2.8250620606405272
0.8442390352751149 -3.0890093497232702
0.8375425215196828 -3.342139498701321
0.8290776117126186 -3.5811128580828653
0.8187181415091374 -3.8022996664863786
0.8064113097542175 -4.001813168518323
0.7922627447845946 -4.175567465757268
0.7765977048144365 -4.3194028321231
0.7600280972762458 -4.429286895365371
0.7438127153470442 -4.5017702973911895
0.7305424504551874 -4.5346904786902416
0.7172721855633308 -4.5017702973910305
0.7010568036341318 -4.429286895365053
0.6844871960959483 -4.319402832122643
0.6688221561258018 -4.175567465756704