# vtk DataFile Version 3.0
Some data
ASCII
DATASET UNSTRUCTURED_GRID
POINTS 861 float
0.0 0.0 0.0
0.4 0.0 0.0
0.8 0.0 0.0
1.2000000000000002 0.0 0.0
1.6 0.0 0.0
2.0 0.0 0.0
2.4000000000000004 0.0 0.0
2.8000000000000003 0.0 0.0
3.2 0.0 0.0
3.6 0.0 0.0
4.0 0.0 0.0
4.4 0.0 0.0
4.800000000000001 0.0 0.0
5.2 0.0 0.0
5.6000000000000005 0.0 0.0
6.0 0.0 0.0
6.4 0.0 0.0
6.800000000000001 0.0 0.0
7.2 0.0 0.0
7.6000000000000005 0.0 0.0
8.0 0.0 0.0
8.4 0.0 0.0
8.8 0.0 0.0
9.200000000000001 0.0 0.0
9.600000000000001 0.0 0.0
10.0 0.0 0.0
10.4 0.0 0.0
10.8 0.0 0.0
11.200000000000001 0.0 0.0
11.600000000000001 0.0 0.0
12.0 0.0 0.0
12.4 0.0 0.0
12.8 0.0 0.0
13.200000000000001 0.0 0.0
13.600000000000001 0.0 0.0
14.0 0.0 0.0
14.4 0.0 0.0
14.8 0.0 0.0
15.200000000000001 0.0 0.0
15.600000000000001 0.0 0.0
16.0 0.0 0.0
0.0 0.1 0.0
0.4 0.1 0.0
0.8 0.1 0.0
1.2000000000000002 0.1 0.0
1.6 0.1 0.0
2.0 0.1 0.0
2.4000000000000004 0.1 0.0
2.8000000000000003 0.1 0.0
3.2 0.1 0.0
3.6 0.1 0.0
4.0 0.1 0.0
4.4 0.1 0.0
4.800000000000001 0.1 0.0
5.2 0.1 0.0
5.6000000000000005 0.1 0.0
6.0 0.1 0.0
6.4 0.1 0.0
6.800000000000001 0.1 0.0
7.2 0.1 0.0
7.6000000000000005 0.1 0.0
8.0 0.1 0.0
8.4 0.1 0.0
8.8 0.1 0.0
9.200000000000001 0.1 0.0
9.600000000000001 0.1 0.0
10.0 0.1 0.0
10.4 0.1 0.0
10.8 0.1 0.0
11.200000000000001 0.1 0.0
11.600000000000001 0.1 0.0
12.0 0.1 0.0
12.4 0.1 0.0
12.8 0.1 0.0
13.200000000000001 0.1 0.0
13.600000000000001 0.1 0.0
14.0 0.1 0.0
14.4 0.1 0.0
14.8 0.1 0.0
15.200000000000001 0.1 0.0
15.600000000000001 0.1 0.0
16.0 0.1 0.0
0.0 0.2 0.0
0.4 0.2 0.0
0.8 0.2 0.0
1.2000000000000002 0.2 0.0
1.6 0.2 0.0
2.0 0.2 0.0
2.4000000000000004 0.2 0.0
2.8000000000000003 0.2 0.0
3.2 0.2 0.0
3.6 0.2 0.0
4.0 0.2 0.0
4.4 0.2 0.0
4.800000000000001 0.2 0.0
5.2 0.2 0.0
5.6000000000000005 0.2 0.0
6.0 0.2 0.0
6.4 0.2 0.0
6.800000000000001 0.2 0.0
7.2 0.2 0.0
7.6000000000000005 0.2 0.0
8.0 0.2 0.0
8.4 0.2 0.0
8.8 0.2 0.0
9.200000000000001 0.2 0.0
9.600000000000001 0.2 0.0
10.0 0.2 0.0
10.4 0.2 0.0
10.8 0.2 0.0
11.200000000000001 0.2 0.0
11.600000000000001 0.2 0.0
12.0 0.2 0.0
12.4 0.2 0.0
12.8 0.2 0.0
13.200000000000001 0.2 0.0
13.600000000000001 0.2 0.0
14.0 0.2 0.0
14.4 0.2 0.0
14.8 0.2 0.0
15.200000000000001 0.2 0.0
15.600000000000001 0.2 0.0
16.0 0.2 0.0
0.0 0.30000000000000004 0.0
0.4 0.30000000000000004 0.0
0.8 0.30000000000000004 0.0
1.2000000000000002 0.30000000000000004 0.0
1.6 0.30000000000000004 0.0
2.0 0.30000000000000004 0.0
2.4000000000000004 0.30000000000000004 0.0
2.8000000000000003 0.30000000000000004 0.0
3.2 0.30000000000000004 0.0
3.6 0.30000000000000004 0.0
4.0 0.30000000000000004 0.0
4.4 0.30000000000000004 0.0
4.800000000000001 0.30000000000000004 0.0
5.2 0.30000000000000004 0.0
5.6000000000000005 0.30000000000000004 0.0
6.0 0.30000000000000004 0.0
6.4 0.30000000000000004 0.0
6.800000000000001 0.30000000000000004 0.0
7.2 0.30000000000000004 0.0
7.6000000000000005 0.30000000000000004 0.0
8.0 0.30000000000000004 0.0
8.4 0.30000000000000004 0.0
8.8 0.30000000000000004 0.0
9.200000000000001 0.30000000000000004 0.0
9.600000000000001 0.30000000000000004 0.0
10.0 0.30000000000000004 0.0
10.4 0.30000000000000004 0.0
10.8 0.30000000000000004 0.0
11.200000000000001 0.30000000000000004 0.0
11.600000000000001 0.30000000000000004 0.0
12.0 0.30000000000000004 0.0
12.4 0.30000000000000004 0.0
12.8 0.30000000000000004 0.0
13.200000000000001 0.30000000000000004 0.0
13.600000000000001 0.30000000000000004 0.0
14.0 0.30000000000000004 0.0
14.4 0.30000000000000004 0.0
14.8 0.30000000000000004 0.0
15.200000000000001 0.30000000000000004 0.0
15.600000000000001 0.30000000000000004 0.0
16.0 0.30000000000000004 0.0
0.0 0.4 0.0
0.4 0.4 0.0
0.8 0.4 0.0
1.2000000000000002 0.4 0.0
1.6 0.4 0.0
2.0 0.4 0.0
2.4000000000000004 0.4 0.0
2.8000000000000003 0.4 0.0
3.2 0.4 0.0
3.6 0.4 0.0
4.0 0.4 0.0
4.4 0.4 0.0
4.800000000000001 0.4 0.0
5.2 0.4 0.0
5.6000000000000005 0.4 0.0
6.0 0.4 0.0
6.4 0.4 0.0
6.800000000000001 0.4 0.0
7.2 0.4 0.0
7.6000000000000005 0.4 0.0
8.0 0.4 0.0
8.4 0.4 0.0
8.8 0.4 0.0
9.200000000000001 0.4 0.0
9.600000000000001 0.4 0.0
10.0 0.4 0.0
10.4 0.4 0.0
10.8 0.4 0.0
11.200000000000001 0.4 0.0
11.600000000000001 0.4 0.0
12.0 0.4 0.0
12.4 0.4 0.0
12.8 0.4 0.0
13.200000000000001 0.4 0.0
13.600000000000001 0.4 0.0
14.0 0.4 0.0
14.4 0.4 0.0
14.8 0.4 0.0
15.200000000000001 0.4 0.0
15.600000000000001 0.4 0.0
16.0 0.4 0.0
0.0 0.5 0.0
0.4 0.5 0.0
0.8 0.5 0.0
1.2000000000000002 0.5 0.0
1.6 0.5 0.0
2.0 0.5 0.0
2.4000000000000004 0.5 0.0
2.8000000000000003 0.5 0.0
3.2 0.5 0.0
3.6 0.5 0.0
4.0 0.5 0.0
4.4 0.5 0.0
4.800000000000001 0.5 0.0
5.2 0.5 0.0
5.6000000000000005 0.5 0.0
6.0 0.5 0.0
6.4 0.5 0.0
6.800000000000001 0.5 0.0
7.2 0.5 0.0
7.6000000000000005 0.5 0.0
8.0 0.5 0.0
8.4 0.5 0.0
8.8 0.5 0.0
9.200000000000001 0.5 0.0
9.600000000000001 0.5 0.0
10.0 0.5 0.0
10.4 0.5 0.0
10.8 0.5 0.0
11.200000000000001 0.5 0.0
11.600000000000001 0.5 0.0
12.0 0.5 0.0
12.4 0.5 0.0
12.8 0.5 0.0
13.200000000000001 0.5 0.0
13.600000000000001 0.5 0.0
14.0 0.5 0.0
14.4 0.5 0.0
14.8 0.5 0.0
15.200000000000001 0.5 0.0
15.600000000000001 0.5 0.0
16.0 0.5 0.0
0.0 0.6000000000000001 0.0
0.4 0.6000000000000001 0.0
0.8 0.6000000000000001 0.0
1.2000000000000002 0.6000000000000001 0.0
1.6 0.6000000000000001 0.0
2.0 0.6000000000000001 0.0
2.4000000000000004 0.6000000000000001 0.0
2.8000000000000003 0.6000000000000001 0.0
3.2 0.6000000000000001 0.0
3.6 0.6000000000000001 0.0
4.0 0.6000000000000001 0.0
4.4 0.6000000000000001 0.0
4.800000000000001 0.6000000000000001 0.0
5.2 0.6000000000000001 0.0
5.6000000000000005 0.6000000000000001 0.0
6.0 0.6000000000000001 0.0
6.4 0.6000000000000001 0.0
6.800000000000001 0.6000000000000001 0.0
7.2 0.6000000000000001 0.0
7.6000000000000005 0.6000000000000001 0.0
8.0 0.6000000000000001 0.0
8.4 0.6000000000000001 0.0
8.8 0.6000000000000001 0.0
9.200000000000001 0.6000000000000001 0.0
9.600000000000001 0.6000000000000001 0.0
10.0 0.6000000000000001 0.0
10.4 0.6000000000000001 0.0
10.8 0.6000000000000001 0.0
11.200000000000001 0.6000000000000001 0.0
11.600000000000001 0.6000000000000001 0.0
12.0 0.6000000000000001 0.0
12.4 0.6000000000000001 0.0
12.8 0.6000000000000001 0.0
13.200000000000001 0.6000000000000001 0.0
13.600000000000001 0.6000000000000001 0.0
14.0 0.6000000000000001 0.0
14.4 0.6000000000000001 0.0
14.8 0.6000000000000001 0.0
15.200000000000001 0.6000000000000001 0.0
15.600000000000001 0.6000000000000001 0.0
16.0 0.6000000000000001 0.0
0.0 0.7000000000000001 0.0
0.4 0.7000000000000001 0.0
0.8 0.7000000000000001 0.0
1.2000000000000002 0.7000000000000001 0.0
1.6 0.7000000000000001 0.0
2.0 0.7000000000000001 0.0
2.4000000000000004 0.7000000000000001 0.0
2.8000000000000003 0.7000000000000001 0.0
3.2 0.7000000000000001 0.0
3.6 0.7000000000000001 0.0
4.0 0.7000000000000001 0.0
4.4 0.7000000000000001 0.0
4.800000000000001 0.7000000000000001 0.0
5.2 0.7000000000000001 0.0
5.6000000000000005 0.7000000000000001 0.0
6.0 0.7000000000000001 0.0
6.4 0.7000000000000001 0.0
6.800000000000001 0.7000000000000001 0.0
7.2 0.7000000000000001 0.0
7.6000000000000005 0.7000000000000001 0.0
8.0 0.7000000000000001 0.0
8.4 0.7000000000000001 0.0
8.8 0.7000000000000001 0.0
9.200000000000001 0.7000000000000001 0.0
9.600000000000001 0.7000000000000001 0.0
10.0 0.7000000000000001 0.0
10.4 0.7000000000000001 0.0
10.8 0.7000000000000001 0.0
11.200000000000001 0.7000000000000001 0.0
11.600000000000001 0.7000000000000001 0.0
12.0 0.7000000000000001 0.0
12.4 0.7000000000000001 0.0
12.8 0.7000000000000001 0.0
13.200000000000001 0.7000000000000001 0.0
13.600000000000001 0.7000000000000001 0.0
14.0 0.7000000000000001 0.0
14.4 0.7000000000000001 0.0
14.8 0.7000000000000001 0.0
15.200000000000001 0.7000000000000001 0.0
15.600000000000001 0.7000000000000001 0.0
16.0 0.7000000000000001 0.0
0.0 0.8 0.0
0.4 0.8 0.0
0.8 0.8 0.0
1.2000000000000002 0.8 0.0
1.6 0.8 0.0
2.0 0.8 0.0
2.4000000000000004 0.8 0.0
2.8000000000000003 0.8 0.0
3.2 0.8 0.0
3.6 0.8 0.0
4.0 0.8 0.0
4.4 0.8 0.0
4.800000000000001 0.8 0.0
5.2 0.8 0.0
5.6000000000000005 0.8 0.0
6.0 0.8 0.0
6.4 0.8 0.0
6.800000000000001 0.8 0.0
7.2 0.8 0.0
7.6000000000000005 0.8 0.0
8.0 0.8 0.0
8.4 0.8 0.0
8.8 0.8 0.0
9.200000000000001 0.8 0.0
9.600000000000001 0.8 0.0
10.0 0.8 0.0
10.4 0.8 0.0
10.8 0.8 0.0
11.200000000000001 0.8 0.0
11.600000000000001 0.8 0.0
12.0 0.8 0.0
12.4 0.8 0.0
12.8 0.8 0.0
13.200000000000001 0.8 0.0
13.600000000000001 0.8 0.0
14.0 0.8 0.0
14.4 0.8 0.0
14.8 0.8 0.0
15.200000000000001 0.8 0.0
15.600000000000001 0.8 0.0
16.0 0.8 0.0
0.0 0.9 0.0
0.4 0.9 0.0
0.8 0.9 0.0
1.2000000000000002 0.9 0.0
1.6 0.9 0.0
2.0 0.9 0.0
2.4000000000000004 0.9 0.0
2.8000000000000003 0.9 0.0
3.2 0.9 0.0
3.6 0.9 0.0
4.0 0.9 0.0
4.4 0.9 0.0
4.800000000000001 0.9 0.0
5.2 0.9 0.0
5.6000000000000005 0.9 0.0
6.0 0.9 0.0
6.4 0.9 0.0
6.800000000000001 0.9 0.0
7.2 0.9 0.0
7.6000000000000005 0.9 0.0
8.0 0.9 0.0
8.4 0.9 0.0
8.8 0.9 0.0
9.200000000000001 0.9 0.0
9.600000000000001 0.9 0.0
10.0 0.9 0.0
10.4 0.9 0.0
10.8 0.9 0.0
11.200000000000001 0.9 0.0
11.600000000000001 0.9 0.0
12.0 0.9 0.0
12.4 0.9 0.0
12.8 0.9 0.0
13.200000000000001 0.9 0.0
13.600000000000001 0.9 0.0
14.0 0.9 0.0
14.4 0.9 0.0
14.8 0.9 0.0
15.200000000000001 0.9 0.0
15.600000000000001 0.9 0.0
16.0 0.9 0.0
0.0 1.0 0.0
0.4 1.0 0.0
0.8 1.0 0.0
1.2000000000000002 1.0 0.0
1.6 1.0 0.0
2.0 1.0 0.0
2.4000000000000004 1.0 0.0
2.8000000000000003 1.0 0.0
3.2 1.0 0.0
3.6 1.0 0.0
4.0 1.0 0.0
4.4 1.0 0.0
4.800000000000001 1.0 0.0
5.2 1.0 0.0
5.6000000000000005 1.0 0.0
6.0 1.0 0.0
6.4 1.0 0.0
6.800000000000001 1.0 0.0
7.2 1.0 0.0
7.6000000000000005 1.0 0.0
8.0 1.0 0.0
8.4 1.0 0.0
8.8 1.0 0.0
9.200000000000001 1.0 0.0
9.600000000000001 1.0 0.0
10.0 1.0 0.0
10.4 1.0 0.0
10.8 1.0 0.0
11.200000000000001 1.0 0.0
11.600000000000001 1.0 0.0
12.0 1.0 0.0
12.4 1.0 0.0
12.8 1.0 0.0
13.200000000000001 1.0 0.0
13.600000000000001 1.0 0.0
14.0 1.0 0.0
14.4 1.0 0.0
14.8 1.0 0.0
15.200000000000001 1.0 0.0
15.600000000000001 1.0 0.0
16.0 1.0 0.0
0.0 1.1 0.0
0.4 1.1 0.0
0.8 1.1 0.0
1.2000000000000002 1.1 0.0
1.6 1.1 0.0
[...]
POINT_DATA 861
SCALARS Disp float 2
LOOKUP_TABLE default
0.0 0.0
0.0041187205361464104 -0.12454039910577017
0.0051057664331927545 -0.24219034226752656
0.005817458924481871 -0.3591917222753568
0.006666857420366818 -0.47590528441373153
0.007835437300670501 -0.5921195178231522
0.00961581875465337 -0.7075687565264297
0.012290470628977868 -0.8219543537035326
0.016172247045146946 -0.9349078208977213
0.0215953779757935 -1.0459525084466956
0.02891270941093755 -1.154448325607095
0.038528535672861464 -1.2595441220834103
0.05092931436480609 -1.3601589961988765
0.06667461836547772 -1.4550076224394315
0.0863893976681507 -1.5426282868716765
0.11068540104376064 -1.6214052116498656
0.14002129045541256 -1.6895955392481687
0.174528268374767 -1.7453797362536987
0.21385444022223324 -1.7869866433241268
0.25709261794944827 -1.8129148045931527
0.30274087600373367 -1.8221484620151112
0.34838913405801786 -1.8129148045931074
0.3916273117852269 -1.7869866433240336
0.43095348363268204 -1.745379736253564
0.4654604615520227 -1.689595539247999
0.4947963509636596 -1.6214052116496727
0.5190923543392547 -1.5426282868714638
0.5388071336419125 -1.4550076224392052
0.554552437642568 -1.3601589961986438
0.566953216334497 -1.259544122083178
0.5765690425964066 -1.1544483256068696
0.5838863740315388 -1.0459525084464822
0.5893095049621757 -0.9349078208975228
0.5931912813783375 -0.8219543537033521
0.5958659332526565 -0.7075687565262689
0.5976463147066358 -0.5921195178230146
0.5988148945869378 -0.47590528441361757
0.5996642930828223 -0.3591917222752681
0.6003759855741113 -0.24219034226746253
0.6013630314711568 -0.1245403991057325
0.6054817520073005 0.0
0.03108219213852446 -0.0018191941720308738
0.03383990511419107 -0.1246577473846077
0.03438411029658954 -0.24225470741713187
0.035026863320859115 -0.35926951768021315
0.035787335508064365 -0.4760053464798327
0.03680410596622349 -0.5923007201211979
0.03835855867398332 -0.7079006149935784
0.04072220605617722 -0.8225079300422409
0.044186792725358796 -0.9357615700835368
0.04905163107461029 -1.0471856437591014
0.05562722122255114 -1.1561461159281705
0.06426245028388501 -1.2618084468417394
0.0753815300948647 -1.3631140417613057
0.0895012310809737 -1.4587972560288036
0.10719865936693437 -1.54740729817572
0.12904777760704422 -1.627312065015694
0.15548399655506565 -1.6967122223734978
0.1866449319520489 -1.7536905011228947
0.2222342450591711 -1.7963482686142216
0.26142617491496817 -1.8230450819732258
0.3027408760037282 -1.8325818920398593
0.34405557709248674 -1.8230450819731798
0.38324750694827825 -1.7963482686141263
0.41883682005539097 -1.7536905011227568
0.44999775545236237 -1.6967122223733249
0.47643397440037055 -1.6273120650154975
0.49828309264046683 -1.5474072981755043
0.5159805209264139 -1.4587972560285738
0.5301002219125085 -1.3631140417610694
0.5412193017234743 -1.2618084468415038
0.5498545307847953 -1.1561461159279423
0.5564301209327253 -1.0471856437588858
0.561294959281968 -0.9357615700833363
0.564759545951143 -0.8225079300420589
0.5671231933333318 -0.7079006149934166
0.5686776460410887 -0.5923007201210599
0.5696944164992465 -0.4760053464797186
0.5704548886864514 -0.3592695176801245
0.5710976417107209 -0.24225470741706784
0.5716418468931194 -0.12465774738456988
0.5743995598687819 -0.0018191941720287403
0.06140174997427373 -0.003236247707545631
0.06337010999493622 -0.12470942842391422
0.06368686487877093 -0.2422942962344108
0.06421260059874936 -0.3593406087188129
0.06489030684497184 -0.4760904419545877
0.06577177075167379 -0.5924457004336099
0.06709923736488842 -0.7081753245979481
0.06915042308970626 -0.8229797795622277
0.07219080282099542 -0.9365027746482676
0.07648857561225247 -1.0482669625923735
0.082313427977783 -1.1576420062949697
0.08996458043990961 -1.2638063292775177
0.09980665116994308 -1.3657235233995149
0.11229608313297397 -1.462151196536277
0.12796696051988118 -1.551648852296895
0.1473476311560115 -1.6325709696999193
0.17085255223901166 -1.703068582529162
0.1986412589243481 -1.761137527162364
0.2304825433574103 -1.8047626796970972
0.26562576342422745 -1.8321579523531375
0.3027408760037229 -1.841976697606275
0.3398559885832171 -1.8321579523530906
0.37499920865002917 -1.8047626796970002
0.4068404930830831 -1.7611375271622236
0.4346291997684092 -1.7030685825289866
0.45813412085139765 -1.6325709696997197
0.47751479148751586 -1.5516488522966763
0.4931856688744109 -1.4621511965360443
0.5056751008374292 -1.3657235233992755
0.5155171715674504 -1.2638063292772794
0.5231683240295655 -1.157642006294739
0.5289931763950864 -1.0482669625921557
0.5332909491863355 -0.9365027746480654
0.5363313289176186 -0.8229797795620445
0.5383825146424321 -0.7081753245977855
0.5397099812556443 -0.5924457004334714
0.5405914451623453 -0.4760904419544736
0.5412691514085675 -0.3593406087187243
0.5417948871285457 -0.2422942962343468
0.5421116420123806 -0.12470942842387615
0.5440800020330393 -0.003236247707541319
0.09132408288494948 -0.004364634853989552
0.09277774687051712 -0.12474441161959168
0.09297150948470878 -0.24231648072890408
0.09338216324447891 -0.35939957293016117
0.09397000359129372 -0.47616519694058623
0.09473420021114566 -0.5925599127444603
0.095845633199925 -0.7083935436881293
0.0975823620222139 -0.8233710120404268
0.10019489318733704 -0.9371310523020046
0.10391972701863283 -1.0491958522838185
0.10898901473636304 -1.1589355900278806
0.11565399016269742 -1.2655394189798277
0.12422342345576554 -1.3679902897230976
0.1350917523705423 -1.4650698207226336
0.1487309401138707 -1.555351087258975
0.16562989797235722 -1.6371773956071103
0.186182955719558 -1.7086586723828512
0.2105731713302942 -1.7677163092087869
0.238640370515184 -1.8122265605517738
0.26974904357441876 -1.8402682091555138
0.3027408760037181 -1.8503674591090409
0.33573270843301584 -1.840268209155466
0.3668413814922461 -1.8122265605516754
0.39490858067712864 -1.767716309208644
0.41929879628785566 -1.708658672382673
0.4398518540350463 -1.6371773956069082
0.4567508118935221 -1.5553510872587535
0.47038999963683986 -1.4650698207223984
0.48125832855160566 -1.3679902897228555
0.4898277618446629 -1.2655394189795868
0.49649273727098747 -1.1589355900276477
0.501562024988709 -1.049195852283599
0.5052868588199979 -0.937131052301801
0.5078993899851157 -0.8233710120402425
0.5096361188074009 -0.7083935436879663
0.5107475517961783 -0.5925599127443217
0.5115117484160295 -0.476165196940472
0.5120995887628441 -0.3593995729300725
0.5125102425226142 -0.24231648072884016
0.5127040051368059 -0.1247444116195534
0.5141576691223702 -0.004364634853983306
0.12101527127450756 -0.00526774365409727
0.1220968737010794 -0.12477638010355882
0.1222225517152479 -0.242328698254556
0.12253376346486831 -0.3594451047642858
0.12302618227286227 -0.47623045412868276
0.123681482301669 -0.5926522416719858
0.12460302648983276 -0.7085600207835294
0.1260258602227636 -0.8236826985153071
0.128209989908344 -0.9376475254161045
0.13135936544473117 -1.0499727090565654
0.13567089893867848 -1.160027991198692
0.14135192563355373 -1.2670094712863265
0.14865457176158783 -1.3699175379764335
0.1579100071242359 -1.4675567040243669
0.169529935520722 -1.5585145345930262
0.18394517067915175 -1.641129258177005
0.201531004629648 -1.7134782509967357
0.22249747334268363 -1.7734206208089276
0.2467627419892497 -1.8187370236390041
0.2738345210468676 -1.847385454715812
0.30274087600371324 -1.8577737159590633
0.3316472309605575 -1.8473854547157635
0.35871901001817114 -1.8187370236389044
0.38298427866473095 -1.773420620808783
0.4039507473777586 -1.7134782509965556
0.4215365813282459 -1.6411292581768004
0.4359518164866665 -1.558514534592802
0.44757174488314355 -1.4675567040241293
0.4568271802457822 -1.3699175379761892
0.46412982637380706 -1.2670094712860835
0.4698108530686739 -1.160027991198457
0.47412238656261374 -1.0499727090563442
0.47727176209899497 -0.9376475254158997
0.4794558917845707 -0.8236826985151218
0.4808787255174986 -0.7085600207833658
0.4818002697056609 -0.5926522416718472
0.4824555697344672 -0.4762304541285685
0.48294798854246085 -0.35944510476419705
0.48325920029208136 -0.24232869825449205
0.4833848783062498 -0.12477638010352032
0.4844664807328188 -0.00526774365408934
0.15055269469607088 -0.005986275049311055
0.1513527433641556 -0.12480895431897973
0.1514375106808264 -0.2423360206401485
0.15166505603538005 -0.3594781121897587
0.15205996363763322 -0.4762852820658475
0.15260836869988403 -0.5927280005636865
0.15336176965736525 -0.7086847537231604
0.1544961249390062 -0.8239166867600316
0.1562479072406191 -0.9380541780253291
0.15882247390726761 -1.0505994112839065
0.1623773946419215 -1.1609209686724067
0.16707824643118807 -1.268219624659725
0.17312416800843738 -1.3715094522780331
0.1807823711893582 -1.4696162357272982
0.19039370832107408 -1.5611436670696395
0.20233902652673347 -1.6444281240981793
0.21695895810164734 -1.7175245412890972
0.2344770951562706 -1.7782441307679724
0.25490530815562784 -1.8242890554545987
0.27791629391708894 -1.8535122305644716
0.3027408760037084 -1.864205797032489
0.3275654580903266 -1.853512230564422
0.3505764438517837 -1.8242890554544977
0.37100465685113565 -1.778244130767826
0.3885227939057522 -1.717524541288915
0.40314272548065844 -1.6444281240979728
0.41508804368631 -1.5611436670694134
0.4246993808180184 -1.4696162357270586
0.4323575839989315 -1.3715094522777869
0.438403505576173 -1.2682196246594801
0.44310435736543247 -1.1609209686721702
0.4466592781000804 -1.050599411283684
0.44923384476672384 -0.9380541780251233
0.45098562706833306 -0.8239166867598456
0.4521199823499717 -0.7086847537229966
0.4528733833074519 -0.5927280005635477
0.45342178836970237 -0.47628528206573323
0.4538166959719553 -0.35947811218966996
0.45404424132650895 -0.24233602064008458
0.4541290086431797 -0.12480895431894111
0.4549290573112622 -0.00598627504930172
0.17997858044235324 -0.006551983667215746
0.18056336231928855 -0.12484258918848608
0.18061963781219476 -0.24234109216208274
0.18077520181924817 -0.3595001253892874
0.18107407249075472 -0.4763285417441256
0.18151242927749348 -0.5927901270023911
0.18211069207069228 -0.7087782480319188
0.18298660155944918 -0.8240838946645079
0.18432722671903784 -0.9383535464076154
0.186325451336681 -1.051079022756035
0.18912839177969643 -1.1616179838694594
0.1928557028062397 -1.2691739544130265
0.1976567541822332 -1.372771540437297
0.20373558167691938 -1.4712552101114371
0.21136411984652323 -1.5632441655707274
0.22085550186440697 -1.6470789968381894
0.23251837957848637 -1.7207988156525842
0.24658149536703805 -1.7821814117120869
0.26313251868177406 -1.828874081088611
0.2820304171370188 -1.858643409034956
0.30274087600370353 -1.8696659850074417
0.3234513348703869 -1.8586434090349055
0.3423492333256283 -1.828874081088509
0.3589002566403597 -1.7821814117119392
0.37296337242890587 -1.720798815652401
0.3846262501429791 -1.6470789968379809
0.3941176321608564 -1.5632441655705
0.4017461703304543 -1.471255210111196
0.40782499782513454 -1.3727715404370493
0.4126260492011219 -1.2691739544127802
0.4163533602276594 -1.1616179838692218
0.41915630067067006 -1.0510790227558113
0.4211545252883092 -0.9383535464074088
0.42249515044789504 -0.8240838946643215
0.4233710599366503 -0.7087782480317548
0.42396932272984844 -0.5927901270022523
0.4244076795165869 -0.4763285417440112
0.42470655018809333 -0.3595001253891986
0.42486211419514663 -0.24234109216201882
0.4249183896880528 -0.12484258918844737
0.42550317156498646 -0.006551983667205286
0.20932198312544542 -0.006989762403545088
0.20974136874560897 -0.12487808461079124
0.2097741342975725 -0.2423445677451173
0.2098651665403317 -0.3595126182775358
0.21007107958046367 -0.4763596183302455
0.21039504533180375 -0.5928390344885152
0.21084685738004752 -0.7088464615502755
0.21148740146390202 -0.8241978293968522
0.21245099777999268 -0.9385560023358162
0.213891764626444 -1.051416272617348
0.21594612926856185 -1.162124073870194
0.21870812857093055 -1.2698782039941656
0.22227889358225741 -1.3737109697826666
0.22680100456262448 -1.4724823379760523
0.23247428833297762 -1.564825883111328
0.23954331314669833 -1.6490893583037463
0.2482681792232554 -1.7233051397651102
0.25887247569992355 -1.785230552769949
0.2715106536162544 -1.832481045218706
0.2862187648511493 -1.8627652641150043
0.3027408760036983 -1.8741479698829628
0.31926298715624635 -1.8627652641149535
0.3339710983911384 -1.8324810452186029
0.3466092763074656 -1.7852305527698
0.35721357278412946 -1.723305139764926
0.36593843886068167 -1.6490893583035364
0.3730074636743976 -1.5648258831110993
0.3786807474447463 -1.47248233797581
0.38320285842510915 -1.3737109697824177
0.38677362343643146 -1.269878203993918
0.3895356227387958 -1.1621240738699552
0.39158998738091017 -1.0514162726171234
0.39303075422735856 -0.9385560023356089
0.39399435054344734 -0.8241978293966653
0.3946348946273008 -0.7088464615501114
0.3950867066755442 -0.5928390344883763
0.395410672426884 -0.4763596183301311
0.3956165854670159 -0.3595126182774469
0.395707617709775 -0.2423445677450534
0.39574038326173844 -0.12487808461075249
0.3961597688819009 -0.006989762403533768
0.23859886768748337 -0.007324431048742075
0.23889827651654222 -0.124915787009563
0.2389055269921418 -0.24234603304829438
0.23893747949750246 -0.3595167174298505
0.239053791388195 -0.47637862024916866
0.23926109561682266 -0.5928731968650818
0.23956233444378566 -0.7088953746773065
0.2399891089843928 -0.8242706750419725
0.2406114485532571 -0.9386781675451127
0.2415318045441911 -1.0516237451270538
0.24285728459087919 -1.1624475250571225
0.2446662152330176 -1.2703411802540399
0.24702083452618243 -1.3743377790562352
0.2500102906394873 -1.4733096169775544
0.25376253486754685 -1.5659019179110092
0.2584469332530382 -1.6504714876364508
0.26426258205979675 -1.7250522956698242
0.2714227239786119 -1.7873929881638846
0.2801159706155175 -1.835098415007965
0.2905310816095235 -1.8658558306609825
0.3027408760036928 -1.8776366832629592
0.3149506703978614 -1.865855830660931
0.32536578139186556 -1.835098415007861
0.3340590280287686 -1.787392988163735
0.3412191699475806 -1.725052295669639
0.3470348187543359 -1.65047148763624
0.35171921713982396 -1.5659019179107794
0.3554714613678806 -1.4733096169773114
0.35846091748118303 -1.3743377790559856
0.360815536774345 -1.2703411802537916
0.36262446741648063 -1.162447525056883
0.3639499474631664 -1.0516237451268289
0.3648703034540987 -0.9386781675449051
0.36549264302296186 -0.8242706750417855
0.36591941756356844 -0.7088953746771423
0.36622065639053114 -0.5928731968649429
0.3664279606191587 -0.4763786202490543
0.36654427250985117 -0.3595167174297616
0.3665762250152118 -0.24234603304823044
0.3665834754908113 -0.12491578700952427
0.3668828843198695 -0.007324431048730142
0.26781979130088523 -0.0075825096621892135
0.26803656504719353 -0.1249558035184412
0.26801885194118963 -0.24234471110739023
0.26799549712222775 -0.35951330361251127
0.2680255563497962 -0.4763857878058551
0.2681155970228264 -0.5928917804328661
0.26826248458866314 -0.708924644733136
0.2684761836688246 -0.8243134461462189
0.26878519229380543 -0.9387421347131658
0.2692365425022351 -1.051725124868629
0.2698760089030151 -1.1626080034282187
0.2707600338810364 -1.2705796437718009
0.27191761896206373 -1.3746687163253033
0.27339614812120944 -1.4737557074315684
0.27526086134451283 -1.5664927467267928
0.27760014823392676 -1.6512455771620902
0.2805421892867514 -1.7260559145433927
0.2842691955713069 -1.7886798646731423
0.28902080934997176 -1.8367216130973434
0.2950445278597869 -1.8678850218851968
0.30274087600368704 -1.8801040740275043
0.310437224147587 -1.8678850218851453
0.3164609426574012 -1.8367216130972392
0.32121255643606444 -1.788679864672992
0.32493956272061814 -1.7260559145432068
0.3278816037734413 -1.6512455771618788
0.33022089066285365 -1.5664927467265628
0.332085603886156 -1.473755707431325
0.3335641330453008 -1.3746687163250535
0.3347217181263269 -1.2705796437715522
0.33560574310434693 -1.1626080034279789
0.33624520950512593 -1.0517251248684039
0.3366965597135551 -0.9387421347129582
0.33700556833853546 -0.8243134461460319
0.3372192674186967 -0.7089246447329717
0.3373661549845334 -0.5928917804327273
0.3374561956575636 -0.4763857878057407
0.337486254885132 -0.35951330361242234
0.3374629000661701 -0.24234471110732625
0.33744518696016623 -0.12495580351840248
0.3376619607064741 -0.007582509662176882
0.2969999031246144 -0.007783877394613464
0.2971587024901621 -0.12499680253838216
0.29711835569725736 -0.2423404332313182
0.2970432508343929 -0.3595029241332672
0.29699016476875384 -0.4763814546150138
0.2969637789088922 -0.5928946007738536
0.2969541792280504 -0.7089334979596973
0.2969520695707242 -0.8243276468920248
0.2969520081766628 -0.9387628952219261
0.29695241595311367 -1.0517561347991273
0.2969527200969726 -1.1626525535023706
0.2969528976020947 -1.2706425515084014
0.29695182395753683 -1.3747547007337002
0.29694780805998094 -1.4738719717631468
0.29694094907878754 -1.5666479704403649
0.2969438845577869 -1.651457990516059
0.29701678661007563 -1.726357716678785
0.2973169417876144 -1.7891254625034605
0.2981300007311393 -1.837383140288213
0.2998003086600012 -1.868839162147696
0.302740876003681 -1.8815156649087472
0.30568144334736125 -1.8688391621476443
0.3073517512762227 -1.8373831402881087
0.30816481021974723 -1.78912546250331
0.30846496539728596 -1.726357716678599
0.3085378674495751 -1.6514579905158477
0.3085408029285748 -1.5666479704401346
0.3085339439473818 -1.4738719717629034
0.3085299280498267 -1.3747547007334502
0.3085288544052694 -1.270642551508153
0.308529031910392 -1.1626525535021306
0.3085293360542513 -1.051756134798902
0.3085297438307024 -0.9387628952217184
0.30852968243664125 -0.8243276468918378
0.30852757277931514 -0.708933497959533
0.3085179730984734 -0.5928946007737149
0.3084915872386119 -0.47638145461489934
0.3084385011729729 -0.3595029241331783
0.30836339631010856 -0.2423404332312542
0.3083230495172038 -0.12499680253834344
0.3084818488827513 -0.007783877394600895
0.32615137051808657 -0.007942906834090246
0.3262694668905299 -0.1250361996889213
0.3262082696788754 -0.242333462951106
0.32608495557104866 -0.3594859660753581
0.3259518497028999 -0.4763660848222872
0.3258111832672307 -0.5928817675497966
0.3256462863508664 -0.7089217120535003
0.32542780626299334 -0.8243129185909903
0.32511885088167775 -0.9387422825992487
0.32466830822804954 -1.0517252435669502
0.32402959994438973 -1.1626081343377266
0.3231458387990459 -1.270579443797598
0.32198614593290015 -1.374667694669534
0.32049975147504955 -1.473753495145419
0.3186207589475422 -1.5664905938287026
0.3162873256046049 -1.6512565089516613
0.3134838188685273 -1.7261240037414005
0.31030916496650884 -1.788897488118886
0.30704097418107734 -1.837234479783222
0.3041598745625227 -1.868825199254109
0.3027408760036754 -1.8819849102500046
0.3013218774448278 -1.8688251992540572
0.298440777826273 -1.8372344797831175
0.2951725870408426 -1.7888974881187352
0.2919979331388263 -1.726124003741215
0.2891944264027512 -1.6512565089514502
0.2868609930598159 -1.5664905938284723
0.2849820005323105 -1.4737534951451758
0.28349560607446217 -1.3746676946692842
0.28233591320831897 -1.2705794437973494
0.28145215206297725 -1.1626081343374868
0.2808134437793194 -1.0517252435667248
0.28036290112569223 -0.9387422825990411
0.2800539457443774 -0.8243129185908034
0.27983546565650486 -0.7089217120533359
0.2796705687401409 -0.5928817675496578
0.27952990230447183 -0.4763660848221729
0.2793967964363233 -0.3594859660752693
0.27927348232849664 -0.242333462951042
0.27921228511684215 -0.12503619968888258
0.27933038148928535 -0.007942906834077489
0.3552895194689729 -0.0080657941222256
0.35537390752060266 -0.12507231096498883
0.35529336969119807 -0.24232380778328888
0.35512493638297565 -0.35946284854459154
0.3549151209790036 -0.47634025764259613
0.3546632896066395 -0.592853630946984
0.35434537659267723 -0.7088895925310646
0.35391490078445237 -0.8242696614275814
0.3532925776788001 -0.9386784674157521
0.35237325144490295 -1.0516240534795196
0.3510484397259935 -1.162447730171374
0.34923950409354393 -1.2703407500984678
0.3468833595501865 -1.374335655814796
0.3438874607004376 -1.4733045116716696