# vtk DataFile Version 3.0
Some data
ASCII
DATASET UNSTRUCTURED_GRID
POINTS 861 float
0.0 0.0 0.0
0.4 0.0 0.0
0.8 0.0 0.0
1.2000000000000002 0.0 0.0
1.6 0.0 0.0
2.0 0.0 0.0
2.4000000000000004 0.0 0.0
2.8000000000000003 0.0 0.0
3.2 0.0 0.0
3.6 0.0 0.0
4.0 0.0 0.0
4.4 0.0 0.0
4.800000000000001 0.0 0.0
5.2 0.0 0.0
5.6000000000000005 0.0 0.0
6.0 0.0 0.0
6.4 0.0 0.0
6.800000000000001 0.0 0.0
7.2 0.0 0.0
7.6000000000000005 0.0 0.0
8.0 0.0 0.0
8.4 0.0 0.0
8.8 0.0 0.0
9.200000000000001 0.0 0.0
9.600000000000001 0.0 0.0
10.0 0.0 0.0
10.4 0.0 0.0
10.8 0.0 0.0
11.200000000000001 0.0 0.0
11.600000000000001 0.0 0.0
12.0 0.0 0.0
12.4 0.0 0.0
12.8 0.0 0.0
13.200000000000001 0.0 0.0
13.600000000000001 0.0 0.0
14.0 0.0 0.0
14.4 0.0 0.0
14.8 0.0 0.0
15.200000000000001 0.0 0.0
15.600000000000001 0.0 0.0
16.0 0.0 0.0
0.0 0.1 0.0
0.4 0.1 0.0
0.8 0.1 0.0
1.2000000000000002 0.1 0.0
1.6 0.1 0.0
2.0 0.1 0.0
2.4000000000000004 0.1 0.0
2.8000000000000003 0.1 0.0
3.2 0.1 0.0
3.6 0.1 0.0
4.0 0.1 0.0
4.4 0.1 0.0
4.800000000000001 0.1 0.0
5.2 0.1 0.0
5.6000000000000005 0.1 0.0
6.0 0.1 0.0
6.4 0.1 0.0
6.800000000000001 0.1 0.0
7.2 0.1 0.0
7.6000000000000005 0.1 0.0
8.0 0.1 0.0
8.4 0.1 0.0
8.8 0.1 0.0
9.200000000000001 0.1 0.0
9.600000000000001 0.1 0.0
10.0 0.1 0.0
10.4 0.1 0.0
10.8 0.1 0.0
11.200000000000001 0.1 0.0
11.600000000000001 0.1 0.0
12.0 0.1 0.0
12.4 0.1 0.0
12.8 0.1 0.0
13.200000000000001 0.1 0.0
13.600000000000001 0.1 0.0
14.0 0.1 0.0
14.4 0.1 0.0
14.8 0.1 0.0
15.200000000000001 0.1 0.0
15.600000000000001 0.1 0.0
16.0 0.1 0.0
0.0 0.2 0.0
0.4 0.2 0.0
0.8 0.2 0.0
1.2000000000000002 0.2 0.0
1.6 0.2 0.0
2.0 0.2 0.0
2.4000000000000004 0.2 0.0
2.8000000000000003 0.2 0.0
3.2 0.2 0.0
3.6 0.2 0.0
4.0 0.2 0.0
4.4 0.2 0.0
4.800000000000001 0.2 0.0
5.2 0.2 0.0
5.6000000000000005 0.2 0.0
6.0 0.2 0.0
6.4 0.2 0.0
6.800000000000001 0.2 0.0
7.2 0.2 0.0
7.6000000000000005 0.2 0.0
8.0 0.2 0.0
8.4 0.2 0.0
8.8 0.2 0.0
9.200000000000001 0.2 0.0
9.600000000000001 0.2 0.0
10.0 0.2 0.0
10.4 0.2 0.0
10.8 0.2 0.0
11.200000000000001 0.2 0.0
11.600000000000001 0.2 0.0
12.0 0.2 0.0
12.4 0.2 0.0
12.8 0.2 0.0
13.200000000000001 0.2 0.0
13.600000000000001 0.2 0.0
14.0 0.2 0.0
14.4 0.2 0.0
14.8 0.2 0.0
15.200000000000001 0.2 0.0
15.600000000000001 0.2 0.0
16.0 0.2 0.0
0.0 0.30000000000000004 0.0
0.4 0.30000000000000004 0.0
0.8 0.30000000000000004 0.0
1.2000000000000002 0.30000000000000004 0.0
1.6 0.30000000000000004 0.0
2.0 0.30000000000000004 0.0
2.4000000000000004 0.30000000000000004 0.0
2.8000000000000003 0.30000000000000004 0.0
3.2 0.30000000000000004 0.0
3.6 0.30000000000000004 0.0
4.0 0.30000000000000004 0.0
4.4 0.30000000000000004 0.0
4.800000000000001 0.30000000000000004 0.0
5.2 0.30000000000000004 0.0
5.6000000000000005 0.30000000000000004 0.0
6.0 0.30000000000000004 0.0
6.4 0.30000000000000004 0.0
6.800000000000001 0.30000000000000004 0.0
7.2 0.30000000000000004 0.0
7.6000000000000005 0.30000000000000004 0.0
8.0 0.30000000000000004 0.0
8.4 0.30000000000000004 0.0
8.8 0.30000000000000004 0.0
9.200000000000001 0.30000000000000004 0.0
9.600000000000001 0.30000000000000004 0.0
10.0 0.30000000000000004 0.0
10.4 0.30000000000000004 0.0
10.8 0.30000000000000004 0.0
11.200000000000001 0.30000000000000004 0.0
11.600000000000001 0.30000000000000004 0.0
12.0 0.30000000000000004 0.0
12.4 0.30000000000000004 0.0
12.8 0.30000000000000004 0.0
13.200000000000001 0.30000000000000004 0.0
13.600000000000001 0.30000000000000004 0.0
14.0 0.30000000000000004 0.0
14.4 0.30000000000000004 0.0
14.8 0.30000000000000004 0.0
15.200000000000001 0.30000000000000004 0.0
15.600000000000001 0.30000000000000004 0.0
16.0 0.30000000000000004 0.0
0.0 0.4 0.0
0.4 0.4 0.0
0.8 0.4 0.0
1.2000000000000002 0.4 0.0
1.6 0.4 0.0
2.0 0.4 0.0
2.4000000000000004 0.4 0.0
2.8000000000000003 0.4 0.0
3.2 0.4 0.0
3.6 0.4 0.0
4.0 0.4 0.0
4.4 0.4 0.0
4.800000000000001 0.4 0.0
5.2 0.4 0.0
5.6000000000000005 0.4 0.0
6.0 0.4 0.0
6.4 0.4 0.0
6.800000000000001 0.4 0.0
7.2 0.4 0.0
7.6000000000000005 0.4 0.0
8.0 0.4 0.0
8.4 0.4 0.0
8.8 0.4 0.0
9.200000000000001 0.4 0.0
9.600000000000001 0.4 0.0
10.0 0.4 0.0
10.4 0.4 0.0
10.8 0.4 0.0
11.200000000000001 0.4 0.0
11.600000000000001 0.4 0.0
12.0 0.4 0.0
12.4 0.4 0.0
12.8 0.4 0.0
13.200000000000001 0.4 0.0
13.600000000000001 0.4 0.0
14.0 0.4 0.0
14.4 0.4 0.0
14.8 0.4 0.0
15.200000000000001 0.4 0.0
15.600000000000001 0.4 0.0
16.0 0.4 0.0
0.0 0.5 0.0
0.4 0.5 0.0
0.8 0.5 0.0
1.2000000000000002 0.5 0.0
1.6 0.5 0.0
2.0 0.5 0.0
2.4000000000000004 0.5 0.0
2.8000000000000003 0.5 0.0
3.2 0.5 0.0
3.6 0.5 0.0
4.0 0.5 0.0
4.4 0.5 0.0
4.800000000000001 0.5 0.0
5.2 0.5 0.0
5.6000000000000005 0.5 0.0
6.0 0.5 0.0
6.4 0.5 0.0
6.800000000000001 0.5 0.0
7.2 0.5 0.0
7.6000000000000005 0.5 0.0
8.0 0.5 0.0
8.4 0.5 0.0
8.8 0.5 0.0
9.200000000000001 0.5 0.0
9.600000000000001 0.5 0.0
10.0 0.5 0.0
10.4 0.5 0.0
10.8 0.5 0.0
11.200000000000001 0.5 0.0
11.600000000000001 0.5 0.0
12.0 0.5 0.0
12.4 0.5 0.0
12.8 0.5 0.0
13.200000000000001 0.5 0.0
13.600000000000001 0.5 0.0
14.0 0.5 0.0
14.4 0.5 0.0
14.8 0.5 0.0
15.200000000000001 0.5 0.0
15.600000000000001 0.5 0.0
16.0 0.5 0.0
0.0 0.6000000000000001 0.0
0.4 0.6000000000000001 0.0
0.8 0.6000000000000001 0.0
1.2000000000000002 0.6000000000000001 0.0
1.6 0.6000000000000001 0.0
2.0 0.6000000000000001 0.0
2.4000000000000004 0.6000000000000001 0.0
2.8000000000000003 0.6000000000000001 0.0
3.2 0.6000000000000001 0.0
3.6 0.6000000000000001 0.0
4.0 0.6000000000000001 0.0
4.4 0.6000000000000001 0.0
4.800000000000001 0.6000000000000001 0.0
5.2 0.6000000000000001 0.0
5.6000000000000005 0.6000000000000001 0.0
6.0 0.6000000000000001 0.0
6.4 0.6000000000000001 0.0
6.800000000000001 0.6000000000000001 0.0
7.2 0.6000000000000001 0.0
7.6000000000000005 0.6000000000000001 0.0
8.0 0.6000000000000001 0.0
8.4 0.6000000000000001 0.0
8.8 0.6000000000000001 0.0
9.200000000000001 0.6000000000000001 0.0
9.600000000000001 0.6000000000000001 0.0
10.0 0.6000000000000001 0.0
10.4 0.6000000000000001 0.0
10.8 0.6000000000000001 0.0
11.200000000000001 0.6000000000000001 0.0
11.600000000000001 0.6000000000000001 0.0
12.0 0.6000000000000001 0.0
12.4 0.6000000000000001 0.0
12.8 0.6000000000000001 0.0
13.200000000000001 0.6000000000000001 0.0
13.600000000000001 0.6000000000000001 0.0
14.0 0.6000000000000001 0.0
14.4 0.6000000000000001 0.0
14.8 0.6000000000000001 0.0
15.200000000000001 0.6000000000000001 0.0
15.600000000000001 0.6000000000000001 0.0
16.0 0.6000000000000001 0.0
0.0 0.7000000000000001 0.0
0.4 0.7000000000000001 0.0
0.8 0.7000000000000001 0.0
1.2000000000000002 0.7000000000000001 0.0
1.6 0.7000000000000001 0.0
2.0 0.7000000000000001 0.0
2.4000000000000004 0.7000000000000001 0.0
2.8000000000000003 0.7000000000000001 0.0
3.2 0.7000000000000001 0.0
3.6 0.7000000000000001 0.0
4.0 0.7000000000000001 0.0
4.4 0.7000000000000001 0.0
4.800000000000001 0.7000000000000001 0.0
5.2 0.7000000000000001 0.0
5.6000000000000005 0.7000000000000001 0.0
6.0 0.7000000000000001 0.0
6.4 0.7000000000000001 0.0
6.800000000000001 0.7000000000000001 0.0
7.2 0.7000000000000001 0.0
7.6000000000000005 0.7000000000000001 0.0
8.0 0.7000000000000001 0.0
8.4 0.7000000000000001 0.0
8.8 0.7000000000000001 0.0
9.200000000000001 0.7000000000000001 0.0
9.600000000000001 0.7000000000000001 0.0
10.0 0.7000000000000001 0.0
10.4 0.7000000000000001 0.0
10.8 0.7000000000000001 0.0
11.200000000000001 0.7000000000000001 0.0
11.600000000000001 0.7000000000000001 0.0
12.0 0.7000000000000001 0.0
12.4 0.7000000000000001 0.0
12.8 0.7000000000000001 0.0
13.200000000000001 0.7000000000000001 0.0
13.600000000000001 0.7000000000000001 0.0
14.0 0.7000000000000001 0.0
14.4 0.7000000000000001 0.0
14.8 0.7000000000000001 0.0
15.200000000000001 0.7000000000000001 0.0
15.600000000000001 0.7000000000000001 0.0
16.0 0.7000000000000001 0.0
0.0 0.8 0.0
0.4 0.8 0.0
0.8 0.8 0.0
1.2000000000000002 0.8 0.0
1.6 0.8 0.0
2.0 0.8 0.0
2.4000000000000004 0.8 0.0
2.8000000000000003 0.8 0.0
3.2 0.8 0.0
3.6 0.8 0.0
4.0 0.8 0.0
4.4 0.8 0.0
4.800000000000001 0.8 0.0
5.2 0.8 0.0
5.6000000000000005 0.8 0.0
6.0 0.8 0.0
6.4 0.8 0.0
6.800000000000001 0.8 0.0
7.2 0.8 0.0
7.6000000000000005 0.8 0.0
8.0 0.8 0.0
8.4 0.8 0.0
8.8 0.8 0.0
9.200000000000001 0.8 0.0
9.600000000000001 0.8 0.0
10.0 0.8 0.0
10.4 0.8 0.0
10.8 0.8 0.0
11.200000000000001 0.8 0.0
11.600000000000001 0.8 0.0
12.0 0.8 0.0
12.4 0.8 0.0
12.8 0.8 0.0
13.200000000000001 0.8 0.0
13.600000000000001 0.8 0.0
14.0 0.8 0.0
14.4 0.8 0.0
14.8 0.8 0.0
15.200000000000001 0.8 0.0
15.600000000000001 0.8 0.0
16.0 0.8 0.0
0.0 0.9 0.0
0.4 0.9 0.0
0.8 0.9 0.0
1.2000000000000002 0.9 0.0
1.6 0.9 0.0
2.0 0.9 0.0
2.4000000000000004 0.9 0.0
2.8000000000000003 0.9 0.0
3.2 0.9 0.0
3.6 0.9 0.0
4.0 0.9 0.0
4.4 0.9 0.0
4.800000000000001 0.9 0.0
5.2 0.9 0.0
5.6000000000000005 0.9 0.0
6.0 0.9 0.0
6.4 0.9 0.0
6.800000000000001 0.9 0.0
7.2 0.9 0.0
7.6000000000000005 0.9 0.0
8.0 0.9 0.0
8.4 0.9 0.0
8.8 0.9 0.0
9.200000000000001 0.9 0.0
9.600000000000001 0.9 0.0
10.0 0.9 0.0
10.4 0.9 0.0
10.8 0.9 0.0
11.200000000000001 0.9 0.0
11.600000000000001 0.9 0.0
12.0 0.9 0.0
12.4 0.9 0.0
12.8 0.9 0.0
13.200000000000001 0.9 0.0
13.600000000000001 0.9 0.0
14.0 0.9 0.0
14.4 0.9 0.0
14.8 0.9 0.0
15.200000000000001 0.9 0.0
15.600000000000001 0.9 0.0
16.0 0.9 0.0
0.0 1.0 0.0
0.4 1.0 0.0
0.8 1.0 0.0
1.2000000000000002 1.0 0.0
1.6 1.0 0.0
2.0 1.0 0.0
2.4000000000000004 1.0 0.0
2.8000000000000003 1.0 0.0
3.2 1.0 0.0
3.6 1.0 0.0
4.0 1.0 0.0
4.4 1.0 0.0
4.800000000000001 1.0 0.0
5.2 1.0 0.0
5.6000000000000005 1.0 0.0
6.0 1.0 0.0
6.4 1.0 0.0
6.800000000000001 1.0 0.0
7.2 1.0 0.0
7.6000000000000005 1.0 0.0
8.0 1.0 0.0
8.4 1.0 0.0
8.8 1.0 0.0
9.200000000000001 1.0 0.0
9.600000000000001 1.0 0.0
10.0 1.0 0.0
10.4 1.0 0.0
10.8 1.0 0.0
11.200000000000001 1.0 0.0
11.600000000000001 1.0 0.0
12.0 1.0 0.0
12.4 1.0 0.0
12.8 1.0 0.0
13.200000000000001 1.0 0.0
13.600000000000001 1.0 0.0
14.0 1.0 0.0
14.4 1.0 0.0
14.8 1.0 0.0
15.200000000000001 1.0 0.0
15.600000000000001 1.0 0.0
16.0 1.0 0.0
0.0 1.1 0.0
0.4 1.1 0.0
0.8 1.1 0.0
1.2000000000000002 1.1 0.0
1.6 1.1 0.0
[...]
POINT_DATA 861
SCALARS Disp float 2
LOOKUP_TABLE default
0.0 0.0
0.005024397120318694 -0.1805405872625467
0.006170609008199147 -0.35296647389646396
0.006918004460108286 -0.5245436196002607
0.007839991026671475 -0.6958047201305336
0.009212656787810315 -0.866446643662262
0.011473001166928445 -1.0360783851785307
0.015120359703660064 -1.2042202515403742
0.02073131926206432 -1.3702786797139688
0.028929089386780713 -1.5334916265986913
0.04034585070275964 -1.6928380236474048
0.055613695011103005 -1.846969373077079
0.07536519478289225 -1.9942069137736615
0.10022581485547698 -2.132608400695104
0.13081387336948103 -2.260026453417817
0.16767346949735348 -2.374152561171601
0.21114770768549027 -2.4725668248610364
0.26121795232921646 -2.5528211170794095
0.3173573282175634 -2.612601562694275
0.37845763760967094 -2.6499637662983697
0.44271886205692623 -2.6635676634673646
0.5069800865041783 -2.6499637662982907
0.5680803958962741 -2.612601562694113
0.624219771784601 -2.5528211170791755
0.6742900164283012 -2.4725668248607424
0.71776425461641 -2.3741525611712655
0.7546238507442543 -2.260026453417449
0.7852119092582296 -2.132608400694714
0.8100725293307856 -1.9942069137732614
0.8298240291025475 -1.846969373076682
0.8450918734108663 -1.692838023647021
0.8565086347268251 -1.5334916265983292
0.8647064048515256 -1.3702786797136335
0.8703173644099179 -1.204220251540071
0.8739647229466413 -1.0360783851782625
0.8762250673257542 -0.866446643662034
0.8775977330868908 -0.6958047201303462
0.8785197196534532 -0.5245436196001163
0.8792671151053622 -0.3529664738963617
0.8804133269932416 -0.18054058726248887
0.8854377241135571 0.0
0.04504032882317096 -0.0021398385217625796
0.04848783094811387 -0.18073277160502346
0.0491021830617128 -0.3530275817846477
0.04977018058896002 -0.5246272364408555
0.05058836359211335 -0.6959235812153903
0.05176832543972703 -0.8666869406543483
0.05372331952064401 -1.0365544480381037
0.05692678635636369 -1.205064737371617
0.06192070398689281 -1.3716387456070787
0.06927337239173335 -1.5355159272272956
0.07954763600275681 -1.695672996644414
0.09329297134536925 -1.8507611602967984
0.11106244785115975 -1.999103835420931
0.13342774205193647 -2.1387603999537763
0.16095648510584032 -2.2675782973144867
0.19415786380800745 -2.383219977089073
0.23336312692367192 -2.4832002075360635
0.2785805519172013 -2.5649672593548796
0.32936365488151126 -2.626073398829836
0.38468837637987874 -2.664421427428714
0.44271886205691646 -2.678424726111718
0.5007493477339509 -2.664421427428633
0.5560740692323075 -2.6260733988296705
0.6068571721966 -2.5649672593546398
0.6520745971901067 -2.4832002075357638
0.6912798603057464 -2.3832199770887317
0.7244812390078881 -2.2675782973141123
0.7520099820617661 -2.1387603999533797
0.7743752762625169 -1.9991038354205246
0.792144752768283 -1.8507611602963954
0.8058900881108734 -1.695672996644025
0.8161643517218784 -1.5355159272269292
0.8235170201267046 -1.3716387456067403
0.8285109377572227 -1.2050647373713117
0.831714404592935 -1.036554448037834
0.8336693986738476 -0.8666869406541196
0.8348493605214593 -0.6959235812152027
0.8356675435246123 -0.5246272364407111
0.8363355410518593 -0.3530275817845454
0.8369498931654582 -0.1807327716049653
0.8403973952903961 -0.0021398385217601974
0.08920027365801723 -0.0038222287737558333
0.09169861329406846 -0.18082544149017374
0.09205447491936429 -0.3530635464293839
0.09260076135996652 -0.5247016678857843
0.09332284300906392 -0.6960212297192725
0.09433002423520175 -0.8668776040866797
0.09598399263999728 -1.0369475738002618
0.09874476950228595 -1.2057858825161933
0.10311150596822179 -1.372824970511364
0.1096007192915236 -1.5373016924785488
0.11870883027105823 -1.6981869246839483
0.13091082812890342 -1.8541293700928623
0.14668311076159285 -2.003456887943194
0.1665286414328084 -2.144235353040548
0.19096863008179052 -2.274308613659435
0.2204735491611429 -2.391314887444451
0.2553687087162101 -2.492712678950435
0.2957058803184213 -2.575858754121593
0.34112266050835843 -2.6381813241637224
0.39067077335980754 -2.677412687339077
0.442718862056907 -2.69178264996253
0.4947669507540034 -2.6774126873389945
0.5443150636054426 -2.6381813241635537
0.5897318437953643 -2.5758587541213487
0.630069015397556 -2.4927126789501295
0.6649641749526011 -2.391314887444104
0.6944690940319308 -2.2743086136590542
0.7189090826808899 -2.1442353530401452
0.7387546133520826 -2.003456887942782
0.7545268959847504 -1.8541293700924537
0.7667288938425758 -1.6981869246835546
0.7758370048220942 -1.5373016924781788
0.782326218145383 -1.3728249705110227
0.786692954611309 -1.205785882515886
0.7894537314735911 -1.036947573799991
0.7911076998783829 -0.8668776040864505
0.7921148811045194 -0.6960212297190848
0.7928369627536165 -0.52470166788564
0.7933832491942187 -0.35306354642928167
0.7937391108195145 -0.18082544149011529
0.7962374504555609 -0.0038222287737508928
0.13289983363255745 -0.005167819649985747
0.13476779423371804 -0.1808879659995232
0.13498597191219774 -0.3530838110402947
0.13541377341957747 -0.5247630834750571
0.13603775677107138 -0.6961040584946383
0.1368940049354059 -0.8670251531256326
0.13826362606995296 -1.0372602239518023
0.14058464638407991 -1.206384968022205
0.14432043486028126 -1.3738356774191074
0.14993490319064995 -1.5388456376450623
0.15786203505154583 -1.700375947499356
0.16850568679503675 -1.857071514330393
0.18226996704023693 -2.0072642557038183
0.1995875642901958 -2.1490291519420035
0.2209176808942079 -2.28021129392102
0.24669879944630232 -2.3984296414142317
0.2772531159395281 -2.50109670511057
0.31267667489598144 -2.5854906908011364
0.352696702462306 -2.6489214095876954
0.39651015544740564 -2.6889653182064044
0.442718862056898 -2.703703819392772
0.4889275686663873 -2.6889653182063205
0.5327410216514781 -2.6489214095875235
0.5727610492177891 -2.585490690800888
0.608184608174225 -2.5010967051102604
0.6387389246674318 -2.398429641413879
0.6645200432195062 -2.2802112939206345
0.6858501598234982 -2.149029151941596
0.703167757073437 -2.007264255703401
0.7169320373186182 -1.8570715143299796
0.7275756890620921 -1.700375947498958
0.7355028209229736 -1.538845637644689
0.7411172892533306 -1.3738356774187637
0.7448530777295235 -1.2063849680218957
0.7471740980436448 -1.0372602239515303
0.748543719178189 -0.8670251531254032
0.7493999673425226 -0.6961040584944505
0.7500239506940162 -0.5247630834749126
0.7504517522013959 -0.35308381104019243
0.7506699298798757 -0.1808879659994644
0.7525378904810319 -0.005167819649978512
0.17633434994158917 -0.006249830060665983
0.17773749206273973 -0.18093832664621295
0.17788010813171154 -0.35309542476034855
0.17820687748547104 -0.5248108470280203
0.17873066688014697 -0.696174222763389
0.1794515502073657 -0.8671397953602573
0.180567926974059 -1.0374987605095314
0.18245658801207945 -1.206864179594289
0.18556442303811546 -1.3746715515136605
0.1903002275913901 -1.5401465553842841
0.1970388821356584 -1.7022386799176479
0.20611797844960963 -1.8595863867561626
0.21786896847632153 -2.0105255791208
0.232654139235771 -2.153141495359419
0.25087355921113585 -2.285283625355378
0.2729178272716024 -2.4045594212311694
0.29910541262828505 -2.50834574869709
0.32957898801690827 -2.5938547506014173
0.36417218897147013 -2.658292631291034
0.4022684266298225 -2.699099349794112
0.4427188620568891 -2.714223628895519
0.483169297483953 -2.6990993497940257
0.5212655351422972 -2.6582926312908595
0.5558587360968472 -2.593854750601165
0.5863323114854554 -2.508345748696776
0.6125198968421217 -2.4045594212308123
0.634564164902571 -2.2852836253549875
0.6527835848779184 -2.153141495359007
0.6675687556373509 -2.010525579120378
0.6793197456640464 -1.8595863867557452
0.6883988419779833 -1.7022386799172464
0.6951374965222391 -1.5401465553839082
0.6998733010755037 -1.3746715515133148
0.7029811361015325 -1.2068641795939783
0.7048697971395483 -1.0374987605092587
0.7059861739062394 -0.8671397953600276
0.7067070572334575 -0.6961742227632012
0.7072308466281332 -0.524810847027876
0.7075576159818927 -0.3530954247602464
0.7077002320508645 -0.18093832664615392
0.7091033741720114 -0.006249830060656742
0.2195930737476073 -0.007114635712778134
0.22063701161734306 -0.18098234312288994
0.22073505025890683 -0.35310321466433175
0.22097756511431024 -0.5248459645214016
0.22140016929995665 -0.6962327716790161
0.22199670037585634 -0.8672293109066334
0.22288841325225076 -1.0376747161142936
0.224377613903927 -1.2072276469825183
0.2268608432143776 -1.375335079104434
0.23072151940968486 -1.5412057012852671
0.23627196643040113 -1.7037755641749646
0.24378647823066377 -1.8616750850988426
0.2535279307515093 -2.013242486496767
0.2657872978919028 -2.156574053151174
0.2808978052077404 -2.2895273455960843
0.2992100504236214 -2.4097034775073163
0.32102220439253554 -2.514454409497383
0.3465103131959397 -2.600942276308562
0.37563512955726025 -2.6662908488491275
0.4079981101096395 -2.7078236108707174
0.44271886205688016 -2.723362582049526
0.4774396140041183 -2.70782361087063
0.5098025945564905 -2.6662908488489507
0.5389274109178008 -2.6009422763083068
0.5644155197211923 -2.5144544094970653
0.5862276736900925 -2.409703477506956
0.6045399189059587 -2.2895273455956904
0.619650426221782 -2.1565740531507585
0.6319097933621614 -2.013242486496342
0.6416512458829936 -1.8616750850984218
0.6491657576832441 -1.70377556417456
0.6547162047039499 -1.541205701284889
0.658576880899249 -1.3753350791040864
0.6610601102096936 -1.2072276469822063
0.6625493108613664 -1.03767471611402
0.6634410237377592 -0.8672293109064034
0.6640375548136584 -0.6962327716788284
0.6644601589993046 -0.5248459645212572
0.6647026738547079 -0.3531032146642296
0.6648007124962717 -0.18098234312283068
0.6658446503660045 -0.007114635712767221
0.2627238771536175 -0.007797914959300159
0.2634868806598232 -0.18102188443278602
0.2635551295132147 -0.3531096483600603
0.2637253507552709 -0.524869874346994
0.2640476168553882 -0.6962795592082114
0.26452435860592566 -0.867299231140282
0.26521506899306735 -1.0378011392729696
0.26634291910223373 -1.2074880596061253
0.26823250137171284 -1.3758308640610415
0.2712247934549491 -1.5420265677628053
0.2755953294176295 -1.7049896314365467
0.2815528365718904 -1.8633407270901854
0.2892948272970068 -2.0154190589645915
0.299042790960341 -2.1593316865552463
0.31106386499193794 -2.292946459487421
0.3256539640114291 -2.4138649299773576
0.3430925947235112 -2.5194215182957977
0.3635776801669815 -2.6067451624693954
0.38718200421017335 -2.672906163011268
0.41375337021657105 -2.7151351166475073
0.442718862056871 -2.7311285033631614
0.47168435389716873 -2.7151351166474185
0.49825571990356066 -2.672906163011089
0.5218600439467438 -2.6067451624691373
0.5423451293902037 -2.5194215182954776
0.5597837601022746 -2.413864929976994
0.5743738591217535 -2.2929464594870246
0.5863949331533391 -2.1593316865548275
0.5961428968166625 -2.0154190589641634
0.6038848875417683 -1.863340727089762
0.6098423946960194 -1.7049896314361397
0.6142129306586913 -1.542026567762425
0.6172052227419211 -1.3758308640606924
0.6190948050113959 -1.2074880596058124
0.6202226551205596 -1.037801139272696
0.6209133655077002 -0.867299231140052
0.6213901072582374 -0.6962795592080235
0.6217123733583544 -0.5248698743468495
0.6218825946004106 -0.3531096483599582
0.621950843453802 -0.18102188443272654
0.6227138469600055 -0.007797914959287861
0.3057593049394781 -0.008328046690082653
0.3063023848771549 -0.18105853881667558
0.30634670261773295 -0.3531152672202793
0.3064516419932432 -0.5248839811935399
0.3066757056960504 -0.6963137819748058
0.3070304868805566 -0.8673532640497291
0.3075431950051552 -1.037888312201467
0.30834520802140625 -1.207661913838738
0.30968651264135966 -1.3761717521756283
0.3118415579274464 -1.5426158219221402
0.31504553581273387 -1.7058864730969963
0.3194596256858223 -1.8645890023599387
0.32522031422364484 -2.017062076786257
0.33248073970030256 -2.1614223675988677
0.3414386768861827 -2.295549408681747
0.352333433315809 -2.4170500767546486
0.3654136292529108 -2.5232497444995445
0.3808853884071026 -2.611258380353079
0.3989155562372757 -2.678123483235133
0.41959638747507355 -2.721017770239461
0.4427188620568615 -2.737515989886861
0.46584133663864796 -2.721017770239371
0.48652216787644126 -2.6781234832349523
0.5045523357066075 -2.6112583803528193
0.5200240948607913 -2.5232497444992226
0.5331042907978841 -2.417050076754282
0.5439990472275014 -2.295549408681348
0.5529569844133732 -2.1614223675984467
0.560217409890023 -2.0170620767858267
0.5659780984278376 -1.8645890023595133
0.5703921883009185 -1.7058864730965877
0.5735961661861999 -1.542615821921758
0.575751211472282 -1.376171752175278
0.5770925160922324 -1.2076619138384246
0.5778945291084817 -1.0378883122011933
0.5784072372330796 -0.8673532640494992
0.5787620184175855 -0.6963137819746178
0.5789860821203927 -0.5248839811933954
0.5790910214959029 -0.3531152672201771
0.5791353392364808 -0.18105853881661607
0.5796784191741561 -0.008328046690069257
0.3487182269908785 -0.00873240979665193
0.34909788801635355 -0.18109358375128093
0.3491154554163741 -0.3531193542598903
0.3491592167348802 -0.5248893674431734
0.34928821887188355 -0.6963350295933863
0.3495168011296868 -0.8673916834022957
0.3498596410900125 -1.0379469336570397
0.3503769434127371 -1.2077668384800564
0.35122058469953676 -1.3763781204687888
0.3525901038213888 -1.5429888569116847
0.3546621411321114 -1.706476306507549
0.3575569017162263 -1.8654294870918064
0.36135900374754054 -2.018181943113526
0.36616239617962154 -2.162858161693506
0.3720953212659541 -2.297348822404621
0.3793308354175365 -2.419270091174515
0.3880776248763154 -2.5259473355397564
0.3985503311650461 -2.614481455264586
0.4109583279016565 -2.6819246248299113
0.42560360574283423 -2.725441415089927
0.44271886205685157 -2.742505232777077
0.4598341183708684 -2.7254414150898367
0.474479396212043 -2.6819246248297297
0.4868873929486484 -2.6144814552643245
0.4973600992373734 -2.5259473355394326
0.5061068886961462 -2.4192700911741465
0.5133424028477225 -2.2973488224042202
0.5192753279340497 -2.1628581616930833
0.5240787203661257 -2.0181819431130945
0.5278808223974352 -1.8654294870913792
0.5307755829815453 -1.706476306507139
0.5328476202922638 -1.5429888569113017
0.5342171394141131 -1.376378120468438
0.5350607807009109 -1.2077668384797426
0.5355780830236346 -1.037946933656766
0.5359209229839599 -0.8673916834020656
0.536149505241763 -0.6963350295931983
0.5362785073787663 -0.5248893674430289
0.5363222686972722 -0.35311935425978797
0.5363398360972926 -0.18109358375122145
0.5367194971227667 -0.008732409796637725
0.39161312239825835 -0.009039416102563619
0.39187920107467 -0.18112875688319763
0.39186683484288387 -0.3531204240885824
0.39185188663059656 -0.524886839718703
0.3918888111500209 -0.6963434604226253
0.39198971426518137 -0.8674130713330535
0.3921581885230925 -1.0379820091698908
0.3924170910274965 -1.207822726466512
0.3928220893309432 -1.37647820439904
0.39347466016519717 -1.5431734376204356
0.39447354915958294 -1.706781758243691
0.3958927159016827 -1.8658809032727723
0.39776886681623147 -2.018796353670397
0.4001484185282921 -2.163658249148378
0.40309839666150216 -2.298365106647754
0.40671799606645365 -2.420543723927132
0.4111612256065481 -2.5275288300654903
0.41664511038114177 -2.616425832584576
0.4234369333974417 -2.6842983774939673
0.43189306741732686 -2.7283605967189732
0.4427188620568415 -2.7460555105913658
0.45354465669635613 -2.7283605967188826
0.4620007907162397 -2.684298377493785
0.4687926137325364 -2.6164258325843135
0.474276498507127 -2.5275288300651657
0.4787197280472185 -2.4205437239267624
0.4823393274521671 -2.2983651066473523
0.485289305585375 -2.163658249147954
0.4876688572974337 -2.0187963536699645
0.48954500821198044 -1.8658809032723442
0.490964174954078 -1.7067817582432805
0.49196306394846206 -1.5431734376200523
0.4926156347827151 -1.376478204398689
0.49302063308616106 -1.2078227264661983
0.49327953559056464 -1.0379820091696168
0.4934480098484756 -0.8674130713328234
0.493548912963636 -0.6963434604224372
0.49358583748306034 -0.5248868397185585
0.493570889270773 -0.3531204240884801
0.4935585230389868 -0.18112875688313815
0.4938246017153978 -0.00903941610254886
0.43445988538854197 -0.009272631532351014
0.43464600230901534 -0.18116537555762238
0.43460557388061355 -0.3531174005738441
0.43453401627399135 -0.5248769222318749
0.4344817811090754 -0.6963393341388221
0.43445563578088153 -0.8674169310529615
0.4344459519167188 -1.0379930073834676
0.4344434034862967 -1.207840984510951
0.4344429861615464 -1.3765078466794183
0.43444322309922456 -1.543222342873278
0.4344434466097466 -1.7068600086126673
0.43444338758041917 -1.8659974249162263
0.43444018766298886 -2.0189561796121462
0.43443039607570405 -2.163870947506779
0.43441641943400794 -2.298645290860756
0.4344296430951962 -2.4209146304341216
0.4345710346561473 -2.528031929843216
0.43506447032341167 -2.61712595674635
0.4362609141048877 -2.6852773973369577
0.4385605426451438 -2.7297417770055326
0.44271886205683103 -2.7481056972918116
0.446877181468519 -2.729741777005441
0.44917681000877463 -2.685277397336775
0.45037325379024934 -2.617125956746087
0.45086668945751385 -2.528031929842891
0.4510080810184655 -2.420914630433752
0.45102130467965423 -2.298645290860354
0.45100732803795895 -2.1638709475063553
0.4509975364506751 -2.0189561796117137
0.45099433653324583 -1.8659974249157982
0.4509942775039192 -1.706860008612257
0.45099450101444194 -1.5432223428728944
0.4509947379521205 -1.3765078466790672
0.4509943206273705 -1.2078409845106368
0.45099177219694847 -1.0379930073831936
0.45098208833278575 -0.8674169310527312
0.45095594300459196 -0.696339334138634
0.4509037078396761 -0.5248769222317303
0.4508321502330539 -0.35311740057374175
0.4507917218046521 -0.18116537555756293
0.4509778387251252 -0.009272631532335898
0.47726963953179335 -0.00945304867790327
0.4774012156824298 -0.1812015526361488
0.47733546383688746 -0.35311048173676396
0.4772102635096632 -0.5248598344866814
0.4770716844890681 -0.6963231127180556
0.4769205864047483 -0.8674032938551712
0.4767337176146708 -1.0379793436980682
0.4764694192022505 -1.2078222121685664
0.4760637473985351 -1.3764782434811167
0.47541174538008296 -1.5431734888120947
0.47441377630187204 -1.7067819319053896
0.47299419406855064 -1.865880250405864
0.4711109274432137 -2.018793566451118
0.4687115143252315 -2.163652430683031
0.46573495465315573 -2.2983622150735483
0.4621441145369198 -2.420570467757845
0.45797717113780184 -2.5276539085046275
0.45341768942856414 -2.6167782214416055
0.4488269377668242 -2.685039434300232
0.44475610889719586 -2.729697563935588
0.44271886205682076 -2.748769439431348
0.4406816152164451 -2.7296975639354963
0.4366107863468171 -2.6850394343000494
0.4320200346850787 -2.616778221441343
0.4274605529758453 -2.5276539085043024
0.4232936095767314 -2.4205704677574755
0.4197027694604993 -2.2983622150731464
0.41672620978842706 -2.163652430682608
0.41432679667044897 -2.0187935664506864
0.4124435300451163 -1.8658802504054361
0.4110239478117985 -1.7067819319049793
0.4100259787335908 -1.5431734888117115
0.4093739767151406 -1.3764782434807656
0.4089683049114262 -1.2078222121682525
0.4087040064990065 -1.0379793436977942
0.40851713770892933 -0.8674032938549411
0.4083660396246099 -0.6963231127178676
0.4082274606040148 -0.5248598344865366
0.40810226027679064 -0.3531104817366616
0.4080365084312483 -0.18120155263608934
0.4081680845818846 -0.009453048677887967
0.5200576657694937 -0.009592061410439025
0.5201494543910404 -0.18123531628923237
0.5200608447407189 -0.35309997467870624
0.5198852640639726 -0.5248358932108099
0.5196636875039305 -0.6962953914052259
0.5193906633906912 -0.8673724727298864
0.5190308505947804 -1.037941650574405
0.5185089861692559 -1.2077658026546754
0.5176649314810965 -1.376378226225508
0.5162966366121556 -1.5429891350562268
0.5142253755584006 -1.7064765015325667
0.5113295360847651 -1.8654279226430672
0.5075210603133702 -2.0181759254445426
0.5027004802708733 -2.1628461382366453
0.49674414867577316 -2.297342917568337
0.48953465297813686 -2.4193242987372776
0.4810393901694645 -2.5261966105018807
0.4713977700037893 -2.6151720104952223
0.46100236511106396 -2.683402635205961