# vtk DataFile Version 3.0
Some data
ASCII
DATASET UNSTRUCTURED_GRID
POINTS 861 float
0.0 0.0 0.0
0.4 0.0 0.0
0.8 0.0 0.0
1.2000000000000002 0.0 0.0
1.6 0.0 0.0
2.0 0.0 0.0
2.4000000000000004 0.0 0.0
2.8000000000000003 0.0 0.0
3.2 0.0 0.0
3.6 0.0 0.0
4.0 0.0 0.0
4.4 0.0 0.0
4.800000000000001 0.0 0.0
5.2 0.0 0.0
5.6000000000000005 0.0 0.0
6.0 0.0 0.0
6.4 0.0 0.0
6.800000000000001 0.0 0.0
7.2 0.0 0.0
7.6000000000000005 0.0 0.0
8.0 0.0 0.0
8.4 0.0 0.0
8.8 0.0 0.0
9.200000000000001 0.0 0.0
9.600000000000001 0.0 0.0
10.0 0.0 0.0
10.4 0.0 0.0
10.8 0.0 0.0
11.200000000000001 0.0 0.0
11.600000000000001 0.0 0.0
12.0 0.0 0.0
12.4 0.0 0.0
12.8 0.0 0.0
13.200000000000001 0.0 0.0
13.600000000000001 0.0 0.0
14.0 0.0 0.0
14.4 0.0 0.0
14.8 0.0 0.0
15.200000000000001 0.0 0.0
15.600000000000001 0.0 0.0
16.0 0.0 0.0
0.0 0.1 0.0
0.4 0.1 0.0
0.8 0.1 0.0
1.2000000000000002 0.1 0.0
1.6 0.1 0.0
2.0 0.1 0.0
2.4000000000000004 0.1 0.0
2.8000000000000003 0.1 0.0
3.2 0.1 0.0
3.6 0.1 0.0
4.0 0.1 0.0
4.4 0.1 0.0
4.800000000000001 0.1 0.0
5.2 0.1 0.0
5.6000000000000005 0.1 0.0
6.0 0.1 0.0
6.4 0.1 0.0
6.800000000000001 0.1 0.0
7.2 0.1 0.0
7.6000000000000005 0.1 0.0
8.0 0.1 0.0
8.4 0.1 0.0
8.8 0.1 0.0
9.200000000000001 0.1 0.0
9.600000000000001 0.1 0.0
10.0 0.1 0.0
10.4 0.1 0.0
10.8 0.1 0.0
11.200000000000001 0.1 0.0
11.600000000000001 0.1 0.0
12.0 0.1 0.0
12.4 0.1 0.0
12.8 0.1 0.0
13.200000000000001 0.1 0.0
13.600000000000001 0.1 0.0
14.0 0.1 0.0
14.4 0.1 0.0
14.8 0.1 0.0
15.200000000000001 0.1 0.0
15.600000000000001 0.1 0.0
16.0 0.1 0.0
0.0 0.2 0.0
0.4 0.2 0.0
0.8 0.2 0.0
1.2000000000000002 0.2 0.0
1.6 0.2 0.0
2.0 0.2 0.0
2.4000000000000004 0.2 0.0
2.8000000000000003 0.2 0.0
3.2 0.2 0.0
3.6 0.2 0.0
4.0 0.2 0.0
4.4 0.2 0.0
4.800000000000001 0.2 0.0
5.2 0.2 0.0
5.6000000000000005 0.2 0.0
6.0 0.2 0.0
6.4 0.2 0.0
6.800000000000001 0.2 0.0
7.2 0.2 0.0
7.6000000000000005 0.2 0.0
8.0 0.2 0.0
8.4 0.2 0.0
8.8 0.2 0.0
9.200000000000001 0.2 0.0
9.600000000000001 0.2 0.0
10.0 0.2 0.0
10.4 0.2 0.0
10.8 0.2 0.0
11.200000000000001 0.2 0.0
11.600000000000001 0.2 0.0
12.0 0.2 0.0
12.4 0.2 0.0
12.8 0.2 0.0
13.200000000000001 0.2 0.0
13.600000000000001 0.2 0.0
14.0 0.2 0.0
14.4 0.2 0.0
14.8 0.2 0.0
15.200000000000001 0.2 0.0
15.600000000000001 0.2 0.0
16.0 0.2 0.0
0.0 0.30000000000000004 0.0
0.4 0.30000000000000004 0.0
0.8 0.30000000000000004 0.0
1.2000000000000002 0.30000000000000004 0.0
1.6 0.30000000000000004 0.0
2.0 0.30000000000000004 0.0
2.4000000000000004 0.30000000000000004 0.0
2.8000000000000003 0.30000000000000004 0.0
3.2 0.30000000000000004 0.0
3.6 0.30000000000000004 0.0
4.0 0.30000000000000004 0.0
4.4 0.30000000000000004 0.0
4.800000000000001 0.30000000000000004 0.0
5.2 0.30000000000000004 0.0
5.6000000000000005 0.30000000000000004 0.0
6.0 0.30000000000000004 0.0
6.4 0.30000000000000004 0.0
6.800000000000001 0.30000000000000004 0.0
7.2 0.30000000000000004 0.0
7.6000000000000005 0.30000000000000004 0.0
8.0 0.30000000000000004 0.0
8.4 0.30000000000000004 0.0
8.8 0.30000000000000004 0.0
9.200000000000001 0.30000000000000004 0.0
9.600000000000001 0.30000000000000004 0.0
10.0 0.30000000000000004 0.0
10.4 0.30000000000000004 0.0
10.8 0.30000000000000004 0.0
11.200000000000001 0.30000000000000004 0.0
11.600000000000001 0.30000000000000004 0.0
12.0 0.30000000000000004 0.0
12.4 0.30000000000000004 0.0
12.8 0.30000000000000004 0.0
13.200000000000001 0.30000000000000004 0.0
13.600000000000001 0.30000000000000004 0.0
14.0 0.30000000000000004 0.0
14.4 0.30000000000000004 0.0
14.8 0.30000000000000004 0.0
15.200000000000001 0.30000000000000004 0.0
15.600000000000001 0.30000000000000004 0.0
16.0 0.30000000000000004 0.0
0.0 0.4 0.0
0.4 0.4 0.0
0.8 0.4 0.0
1.2000000000000002 0.4 0.0
1.6 0.4 0.0
2.0 0.4 0.0
2.4000000000000004 0.4 0.0
2.8000000000000003 0.4 0.0
3.2 0.4 0.0
3.6 0.4 0.0
4.0 0.4 0.0
4.4 0.4 0.0
4.800000000000001 0.4 0.0
5.2 0.4 0.0
5.6000000000000005 0.4 0.0
6.0 0.4 0.0
6.4 0.4 0.0
6.800000000000001 0.4 0.0
7.2 0.4 0.0
7.6000000000000005 0.4 0.0
8.0 0.4 0.0
8.4 0.4 0.0
8.8 0.4 0.0
9.200000000000001 0.4 0.0
9.600000000000001 0.4 0.0
10.0 0.4 0.0
10.4 0.4 0.0
10.8 0.4 0.0
11.200000000000001 0.4 0.0
11.600000000000001 0.4 0.0
12.0 0.4 0.0
12.4 0.4 0.0
12.8 0.4 0.0
13.200000000000001 0.4 0.0
13.600000000000001 0.4 0.0
14.0 0.4 0.0
14.4 0.4 0.0
14.8 0.4 0.0
15.200000000000001 0.4 0.0
15.600000000000001 0.4 0.0
16.0 0.4 0.0
0.0 0.5 0.0
0.4 0.5 0.0
0.8 0.5 0.0
1.2000000000000002 0.5 0.0
1.6 0.5 0.0
2.0 0.5 0.0
2.4000000000000004 0.5 0.0
2.8000000000000003 0.5 0.0
3.2 0.5 0.0
3.6 0.5 0.0
4.0 0.5 0.0
4.4 0.5 0.0
4.800000000000001 0.5 0.0
5.2 0.5 0.0
5.6000000000000005 0.5 0.0
6.0 0.5 0.0
6.4 0.5 0.0
6.800000000000001 0.5 0.0
7.2 0.5 0.0
7.6000000000000005 0.5 0.0
8.0 0.5 0.0
8.4 0.5 0.0
8.8 0.5 0.0
9.200000000000001 0.5 0.0
9.600000000000001 0.5 0.0
10.0 0.5 0.0
10.4 0.5 0.0
10.8 0.5 0.0
11.200000000000001 0.5 0.0
11.600000000000001 0.5 0.0
12.0 0.5 0.0
12.4 0.5 0.0
12.8 0.5 0.0
13.200000000000001 0.5 0.0
13.600000000000001 0.5 0.0
14.0 0.5 0.0
14.4 0.5 0.0
14.8 0.5 0.0
15.200000000000001 0.5 0.0
15.600000000000001 0.5 0.0
16.0 0.5 0.0
0.0 0.6000000000000001 0.0
0.4 0.6000000000000001 0.0
0.8 0.6000000000000001 0.0
1.2000000000000002 0.6000000000000001 0.0
1.6 0.6000000000000001 0.0
2.0 0.6000000000000001 0.0
2.4000000000000004 0.6000000000000001 0.0
2.8000000000000003 0.6000000000000001 0.0
3.2 0.6000000000000001 0.0
3.6 0.6000000000000001 0.0
4.0 0.6000000000000001 0.0
4.4 0.6000000000000001 0.0
4.800000000000001 0.6000000000000001 0.0
5.2 0.6000000000000001 0.0
5.6000000000000005 0.6000000000000001 0.0
6.0 0.6000000000000001 0.0
6.4 0.6000000000000001 0.0
6.800000000000001 0.6000000000000001 0.0
7.2 0.6000000000000001 0.0
7.6000000000000005 0.6000000000000001 0.0
8.0 0.6000000000000001 0.0
8.4 0.6000000000000001 0.0
8.8 0.6000000000000001 0.0
9.200000000000001 0.6000000000000001 0.0
9.600000000000001 0.6000000000000001 0.0
10.0 0.6000000000000001 0.0
10.4 0.6000000000000001 0.0
10.8 0.6000000000000001 0.0
11.200000000000001 0.6000000000000001 0.0
11.600000000000001 0.6000000000000001 0.0
12.0 0.6000000000000001 0.0
12.4 0.6000000000000001 0.0
12.8 0.6000000000000001 0.0
13.200000000000001 0.6000000000000001 0.0
13.600000000000001 0.6000000000000001 0.0
14.0 0.6000000000000001 0.0
14.4 0.6000000000000001 0.0
14.8 0.6000000000000001 0.0
15.200000000000001 0.6000000000000001 0.0
15.600000000000001 0.6000000000000001 0.0
16.0 0.6000000000000001 0.0
0.0 0.7000000000000001 0.0
0.4 0.7000000000000001 0.0
0.8 0.7000000000000001 0.0
1.2000000000000002 0.7000000000000001 0.0
1.6 0.7000000000000001 0.0
2.0 0.7000000000000001 0.0
2.4000000000000004 0.7000000000000001 0.0
2.8000000000000003 0.7000000000000001 0.0
3.2 0.7000000000000001 0.0
3.6 0.7000000000000001 0.0
4.0 0.7000000000000001 0.0
4.4 0.7000000000000001 0.0
4.800000000000001 0.7000000000000001 0.0
5.2 0.7000000000000001 0.0
5.6000000000000005 0.7000000000000001 0.0
6.0 0.7000000000000001 0.0
6.4 0.7000000000000001 0.0
6.800000000000001 0.7000000000000001 0.0
7.2 0.7000000000000001 0.0
7.6000000000000005 0.7000000000000001 0.0
8.0 0.7000000000000001 0.0
8.4 0.7000000000000001 0.0
8.8 0.7000000000000001 0.0
9.200000000000001 0.7000000000000001 0.0
9.600000000000001 0.7000000000000001 0.0
10.0 0.7000000000000001 0.0
10.4 0.7000000000000001 0.0
10.8 0.7000000000000001 0.0
11.200000000000001 0.7000000000000001 0.0
11.600000000000001 0.7000000000000001 0.0
12.0 0.7000000000000001 0.0
12.4 0.7000000000000001 0.0
12.8 0.7000000000000001 0.0
13.200000000000001 0.7000000000000001 0.0
13.600000000000001 0.7000000000000001 0.0
14.0 0.7000000000000001 0.0
14.4 0.7000000000000001 0.0
14.8 0.7000000000000001 0.0
15.200000000000001 0.7000000000000001 0.0
15.600000000000001 0.7000000000000001 0.0
16.0 0.7000000000000001 0.0
0.0 0.8 0.0
0.4 0.8 0.0
0.8 0.8 0.0
1.2000000000000002 0.8 0.0
1.6 0.8 0.0
2.0 0.8 0.0
2.4000000000000004 0.8 0.0
2.8000000000000003 0.8 0.0
3.2 0.8 0.0
3.6 0.8 0.0
4.0 0.8 0.0
4.4 0.8 0.0
4.800000000000001 0.8 0.0
5.2 0.8 0.0
5.6000000000000005 0.8 0.0
6.0 0.8 0.0
6.4 0.8 0.0
6.800000000000001 0.8 0.0
7.2 0.8 0.0
7.6000000000000005 0.8 0.0
8.0 0.8 0.0
8.4 0.8 0.0
8.8 0.8 0.0
9.200000000000001 0.8 0.0
9.600000000000001 0.8 0.0
10.0 0.8 0.0
10.4 0.8 0.0
10.8 0.8 0.0
11.200000000000001 0.8 0.0
11.600000000000001 0.8 0.0
12.0 0.8 0.0
12.4 0.8 0.0
12.8 0.8 0.0
13.200000000000001 0.8 0.0
13.600000000000001 0.8 0.0
14.0 0.8 0.0
14.4 0.8 0.0
14.8 0.8 0.0
15.200000000000001 0.8 0.0
15.600000000000001 0.8 0.0
16.0 0.8 0.0
0.0 0.9 0.0
0.4 0.9 0.0
0.8 0.9 0.0
1.2000000000000002 0.9 0.0
1.6 0.9 0.0
2.0 0.9 0.0
2.4000000000000004 0.9 0.0
2.8000000000000003 0.9 0.0
3.2 0.9 0.0
3.6 0.9 0.0
4.0 0.9 0.0
4.4 0.9 0.0
4.800000000000001 0.9 0.0
5.2 0.9 0.0
5.6000000000000005 0.9 0.0
6.0 0.9 0.0
6.4 0.9 0.0
6.800000000000001 0.9 0.0
7.2 0.9 0.0
7.6000000000000005 0.9 0.0
8.0 0.9 0.0
8.4 0.9 0.0
8.8 0.9 0.0
9.200000000000001 0.9 0.0
9.600000000000001 0.9 0.0
10.0 0.9 0.0
10.4 0.9 0.0
10.8 0.9 0.0
11.200000000000001 0.9 0.0
11.600000000000001 0.9 0.0
12.0 0.9 0.0
12.4 0.9 0.0
12.8 0.9 0.0
13.200000000000001 0.9 0.0
13.600000000000001 0.9 0.0
14.0 0.9 0.0
14.4 0.9 0.0
14.8 0.9 0.0
15.200000000000001 0.9 0.0
15.600000000000001 0.9 0.0
16.0 0.9 0.0
0.0 1.0 0.0
0.4 1.0 0.0
0.8 1.0 0.0
1.2000000000000002 1.0 0.0
1.6 1.0 0.0
2.0 1.0 0.0
2.4000000000000004 1.0 0.0
2.8000000000000003 1.0 0.0
3.2 1.0 0.0
3.6 1.0 0.0
4.0 1.0 0.0
4.4 1.0 0.0
4.800000000000001 1.0 0.0
5.2 1.0 0.0
5.6000000000000005 1.0 0.0
6.0 1.0 0.0
6.4 1.0 0.0
6.800000000000001 1.0 0.0
7.2 1.0 0.0
7.6000000000000005 1.0 0.0
8.0 1.0 0.0
8.4 1.0 0.0
8.8 1.0 0.0
9.200000000000001 1.0 0.0
9.600000000000001 1.0 0.0
10.0 1.0 0.0
10.4 1.0 0.0
10.8 1.0 0.0
11.200000000000001 1.0 0.0
11.600000000000001 1.0 0.0
12.0 1.0 0.0
12.4 1.0 0.0
12.8 1.0 0.0
13.200000000000001 1.0 0.0
13.600000000000001 1.0 0.0
14.0 1.0 0.0
14.4 1.0 0.0
14.8 1.0 0.0
15.200000000000001 1.0 0.0
15.600000000000001 1.0 0.0
16.0 1.0 0.0
0.0 1.1 0.0
0.4 1.1 0.0
0.8 1.1 0.0
1.2000000000000002 1.1 0.0
1.6 1.1 0.0
[...]
POINT_DATA 861
SCALARS Disp float 2
LOOKUP_TABLE default
0.0 0.0
0.0043820314471476555 -0.13780327280311683
0.005408620859634851 -0.2683669162566875
0.0061293194734948955 -0.3982277354140536
0.006996210778496356 -0.5277955662245466
0.008213135756351206 -0.6568354394290634
0.010107435727219375 -0.7850513569421155
0.013015261945564328 -0.9120999094760321
0.017313974766028396 -1.0375577233951905
0.02340678617602052 -1.1608802450180025
0.03171182788130922 -1.2813376421475478
0.04268522583092721 -1.397961516658105
0.056844225718370764 -1.5095300658772273
0.07475931324557068 -1.6146035462671664
0.09704949770384105 -1.7115595428850423
0.12430717161655333 -1.7986203797522469
0.15696223078018995 -1.8738860440252236
0.19511168302707904 -1.9353921420027111
0.2383653425901543 -1.981241813413486
0.28577079067854033 -2.009830175032407
0.33575669153791815 -2.0200622385961733
0.38574259239729425 -2.009830175032353
0.433148040485672 -1.9812418134133751
0.47640170004873394 -1.9353921420025517
0.5145511522956058 -1.8738860440250231
0.5472062114592244 -1.7986203797520193
0.5744638853719186 -1.711559542884792
0.5967540698301705 -1.6146035462669004
0.6146691573573514 -1.5095300658769537
0.6288281572447765 -1.397961516657833
0.6398015551943776 -1.281337642147284
0.6481065968996523 -1.1608802450177529
0.6541994083096336 -1.0375577233949589
0.6584981211300894 -0.912099909475822
0.6614059473484282 -0.7850513569419286
0.6633002473192924 -0.656835439428904
0.6645171722971456 -0.5277955662244145
0.6653840636021463 -0.39822773541395134
0.6661047622160062 -0.268366916256614
0.6671313516284925 -0.1378032728030741
0.6715133830756372 0.0
0.03438728601855809 -0.0019123062465057805
0.03734262062201021 -0.13794138628569044
0.037904647291216675 -0.2684298279624545
0.03855342972138261 -0.39830709261636216
0.0393281066535131 -0.5278999667013914
0.0403834434898042 -0.6570303620729409
0.04203267142620553 -0.785417151917553
0.04459717190438038 -0.9127229572234569
0.04843021265575201 -1.0385333075107799
0.05389569630409637 -1.1623040403446938
0.06136314902929528 -1.2833089753315088
0.07122679670797587 -1.4005919231064048
0.08393767939636634 -1.5129482727192096
0.10002103652292009 -1.6189536791767656
0.12004743458873336 -1.7169930281125476
0.1445722980716118 -1.805269695399973
0.1740052248198842 -1.8818257104322778
0.20845452049184054 -1.9445981806915527
0.2475911976000471 -1.9915614408249567
0.29054548240282335 -2.020968038928255
0.33575669153791166 -2.0315251499510274
0.3809679006729978 -2.0209680389282005
0.42392218547576654 -1.9915614408248437
0.46305886258396156 -1.9445981806913895
0.497508158255903 -1.8818257104320735
0.5269410850041595 -1.805269695399741
0.5514659484870216 -1.7169930281122932
0.5714923465528181 -1.6189536791764954
0.5875757036793549 -1.5129482727189318
0.6002865863677288 -1.4005919231061283
0.6101502340463942 -1.2833089753312414
0.6176176867715806 -1.1623040403444418
0.6230831704199149 -1.038533307510546
0.626916211171279 -0.912722957223245
0.6294807116494483 -0.7854171519173652
0.6311299395858463 -0.6570303620727809
0.632185276422136 -0.5278999667012593
0.632959953354266 -0.3983070926162599
0.6336087357844318 -0.268429827962381
0.6341707624536383 -0.13794138628564753
0.637126097057086 -0.0019123062465035414
0.06797772551807384 -0.0034051683722271585
0.07009652453053472 -0.13800461895513455
0.07042363165091517 -0.2684682962531332
0.07095446628540482 -0.3983790455349192
0.07164331509391998 -0.5279879387720079
0.07255439962760946 -0.6571858611229566
0.07395891706917312 -0.7857195739519673
0.07617935595142648 -0.9132541101222079
0.0795389225684801 -1.0393814104203534
0.08436584839930006 -1.163555059269324
0.090982969277439 -1.2850498111682296
0.0997290352028375 -1.4029183732646329
0.11099161736288303 -1.5159737954616699
0.12523384515589112 -1.6228109487729052
0.14298248482779058 -1.7218219313857486
0.16474912116116025 -1.8111945526430189
0.19092620308677805 -1.8889202811419874
0.2216491768861378 -1.9528487893671183
0.25665872020599756 -2.0008363203602415
0.295160813619158 -2.030983851451867
0.33575669153790544 -2.0418423704342015
0.37635256945665047 -2.0309838514518113
0.4148546628698043 -2.000836320360126
0.44986420618965395 -1.952848789366952
0.48058717998900086 -1.8889202811417798
0.5067642619146044 -1.8111945526427833
0.5285308982479595 -1.7218219313854901
0.5462795379198441 -1.6228109487726312
0.5605217657128372 -1.5159737954613886
0.571784347872868 -1.402918373264353
0.5805304137982531 -1.2850498111679591
0.5871475346763808 -1.1635550592690693
0.5919744605071917 -1.0393814104201176
0.5953340271242386 -0.9132541101219946
0.597554466006487 -0.7857195739517785
0.5989589834480479 -0.6571858611227962
0.5998700679817363 -0.5279879387718758
0.6005589167902511 -0.3983790455348169
0.6010897514247407 -0.26846829625305985
0.6014168585451213 -0.1380046189550914
0.603535657557578 -0.003405168372222637
0.10115310837399843 -0.0045951252103302006
0.10272306841623281 -0.1380471341161944
0.1029236251379415 -0.2684899866540576
0.10333885058712017 -0.39843867886240214
0.1039361115886274 -0.5280645110209469
0.10472192295690681 -0.6573076616479616
0.10589411538889906 -0.7859597685390933
0.1077698017630787 -0.9136945367708154
0.11065222268180536 -1.0401013114055242
0.11483325095923803 -1.1646319721546798
0.1205925625784013 -1.2865588458944806
0.12821562110166174 -1.4049414679215686
0.13803048217823302 -1.518608329426611
0.15043654046763227 -1.6261746769288572
0.1658984965817451 -1.7260434012223835
0.18489038308478217 -1.8163897235176687
0.207788877009228 -1.895163506110692
0.2347580156497567 -1.9601394945133725
0.2656139105799905 -2.0090631979599265
0.2996845061448792 -2.0398954159690827
0.3357566915378995 -2.0510546946748316
0.3718288769309173 -2.0398954159690255
0.4058994724958002 -2.00906319795981
0.43675536742602494 -1.9601394945132036
0.4637245060665425 -1.8951635061104815
0.48662299999097575 -1.8163897235174296
0.5056148864940001 -1.7260434012221217
0.5210768426080997 -1.6261746769285799
0.533482900897486 -1.5186083294263264
0.5432977619740444 -1.4049414679212855
0.5509208204972933 -1.2865588458942074
0.5566801321164465 -1.164631972154423
0.5608611603938713 -1.0401013114052866
0.5637435813125918 -0.9136945367706009
0.5656192676867673 -0.7859597685389038
0.5667914601187575 -0.657307661647801
0.5675772714870362 -0.5280645110208146
0.5681745324885431 -0.3984386788622998
0.5685897579377218 -0.2684899866539843
0.5687903146594305 -0.13804713411615094
0.5703602747016612 -0.004595125210323634
0.13408771453755822 -0.005548545333914824
0.1352584245371827 -0.13808390638593288
0.1353890476040401 -0.26850214775209164
0.13570469324420043 -0.3984848510724519
0.13620556564173925 -0.5281309426418065
0.1368764411160378 -0.6574049525082395
0.13784360968521697 -0.7861428915304196
0.13937688840612814 -0.9140456237146115
0.1417825126060614 -1.040694011665195
0.14531463579805062 -1.1655347141669328
0.1502124202554531 -1.2878365103040113
0.15671242249205802 -1.4066621861793214
0.16508252023464554 -1.5208541744025794
0.17565744522720853 -1.6290474906798817
0.18884198736274047 -1.7296572238363421
0.2050546019297788 -1.82085252226607
0.2246569099339761 -1.9005506903476554
0.24784472939093807 -1.9664636951731458
0.2745188814300723 -2.0162396836809666
0.3041603063023907 -2.0477147450833626
0.33575669153789367 -2.059185338745496
0.3673530767733943 -2.0477147450833044
0.39699450164570743 -2.016239683680848
0.4236686536848336 -1.9664636951729746
0.44685647314178595 -1.9005506903474423
0.4664587811459723 -1.8208525222658283
0.48267139571299955 -1.7296572238360777
0.4958559378485203 -1.6290474906796015
0.5064308628410722 -1.5208541744022916
0.5148009605836489 -1.4066621861790358
0.5213009628202439 -1.2878365103037357
0.5261987472776378 -1.165534714166674
0.5297308704696201 -1.040694011664956
0.5321364946695482 -0.9140456237143959
0.5336697733904558 -0.7861428915302296
0.5346369419596335 -0.6574049525080787
0.5353078174339315 -0.5281309426416743
0.53580868983147 -0.3984848510723496
0.5361243354716304 -0.2685021477520184
0.5362549585384878 -0.13808390638588916
0.5374256685381092 -0.005548545333906475
0.16686225095141086 -0.0063078553113347195
0.1677288767183203 -0.13811924603666084
0.16781766611270774 -0.2685097383608653
0.1680496773835896 -0.3985184761525005
0.16845213577971185 -0.5281867730353175
0.16901257030868572 -0.6574836532746258
0.16979810193862294 -0.7862792929899755
0.1710161980847986 -0.9143098565482257
0.17294294889022885 -1.0411616244946185
0.1758274137386052 -1.1662649456609102
0.17986436804724593 -1.2888841611275783
0.18524387748881924 -1.408083073376719
0.19217748908307772 -1.5227148266912696
0.20093459230076227 -1.6314331040416854
0.2118501958792294 -1.7326672125363616
0.2252953202645003 -1.8245840221193657
0.24160066077849268 -1.9050785322105162
0.2609803085268629 -1.971814587515037
0.2834362866361824 -2.0223609962048923
0.30862652706242216 -2.0544458469019937
0.33575669153788773 -2.066247035064618
0.36288685601335124 -2.0544458469019347
0.3880770964395862 -2.022360996204772
0.4105330745488989 -1.9718145875148636
0.429912722297261 -1.9050785322103008
0.44621806281124404 -1.8245840221191212
0.45966318719650545 -1.7326672125360947
0.47057879077496334 -1.631433104041403
0.47933589399263876 -1.5227148266909798
0.4862695055868882 -1.4080830733764311
0.49164901502845315 -1.288884161127301
0.49568596933708686 -1.16626494566065
0.49857043418545743 -1.041161624494378
0.5004971849908835 -0.9143098565480093
0.5017152811370565 -0.786279292989785
0.5025008127669927 -0.657483653274465
0.5030612472959661 -0.5281867730351852
0.5034637056920881 -0.3985184761523982
0.5036957169629699 -0.268509738360792
0.5037845063573574 -0.138119246036617
0.5046511321242644 -0.00630785531132491
0.19952058415300894 -0.006905986337263172
0.20015307848478192 -0.13815406328533647
0.20021305596780573 -0.26851532778023557
0.2003730705810769 -0.3985410559518316
0.20067833758299128 -0.5282310285681009
0.20112677761000655 -0.6575474868804608
0.20174678718642597 -0.7863800962551035
0.20268161919584515 -0.9144985736711319
0.20415309519619093 -1.0415072623571446
0.20639036065361033 -1.1668257966179951
0.20957181719346907 -1.2897050603614362
0.21383737769559805 -1.4092078450167678
0.2193455770407118 -1.5241953485010382
0.22630164189858049 -1.6333377786967427
0.23497250069983772 -1.7350786514456515
0.24566470836698545 -1.8275888189117597
0.25868048168218305 -1.9087478027738871
0.27424297368342504 -1.976186177406765
0.2924380406104086 -2.0274182713087354
0.3131234340296121 -2.0600840959932025
0.3357566915378816 -2.072243414645936
0.35838994904614946 -2.0600840959931426
0.3790753424653488 -2.027418271308614
0.3972704093923268 -1.97618617740659
0.412832901393562 -1.90874780277367
0.4258486747087519 -1.8275888189115133
0.4365408823758919 -1.7350786514453826
0.4452117411771418 -1.6333377786964585
0.4521678060350034 -1.5241953485007464
0.4576760053801099 -1.4092078450164782
0.4619415658822323 -1.289705060361157
0.4651230224220854 -1.1668257966177333
0.46736028787950024 -1.0415072623569033
0.4688317638798429 -0.9144985736709148
0.46976659588926023 -0.786380096254913
0.47038660546567884 -0.6575474868803
0.47083504549269384 -0.5282310285679686
0.471140312494608 -0.3985410559517293
0.4713003271078791 -0.26851532778016235
0.47136030459090283 -0.13815406328529253
0.47199279892267404 -0.006905986337252156
0.2320927858655122 -0.0073688921967289675
0.232544491086028 -0.13818940146148534
0.23258072392547038 -0.2685195205660391
0.23267595063433733 -0.3985540473471498
0.23288688622402154 -0.5282629710589427
0.2332189714458559 -0.6575976980107157
0.2336859696624499 -0.7864524323934228
0.2343640551701059 -0.914626014556348
0.23541697385712448 -1.0417419341243228
0.23702891071121748 -1.1672225122628532
0.239360608032671 -1.2903043018787732
0.24252140917712592 -1.410042078062933
0.24661926660341885 -1.525302660983948
0.25179687404565804 -1.6347699487112564
0.25825008439951064 -1.7369010050597624
0.2662198671825362 -1.8298741399719942
0.2759642453834441 -1.9115623001628173
0.2877044043054024 -1.9795758632245881
0.30159891036733705 -2.0313995366538373
0.31769765277114825 -2.0646152163707505
0.33575669153787535 -2.0771684498752743
0.3538157303046012 -2.06461521637069
0.36991447270840916 -2.0313995366537148
0.38380897877033926 -1.9795758632244118
0.39554913769229205 -1.9115623001625988
0.405293515893194 -1.829874139971746
0.4132632986762137 -1.7369010050594922
0.41971650903006097 -1.6347699487109701
0.4248941164722951 -1.5253026609836549
0.4289919738985827 -1.4100420780626417
0.4321527750430327 -1.2903043018784932
0.434484472364482 -1.1672225122625903
0.4360964092185719 -1.0417419341240808
0.4371493279055882 -0.9146260145561305
0.437827413413243 -0.786452432393232
0.4382944116298366 -0.6575976980105547
0.43862649685167066 -0.5282629710588105
0.4388374324413547 -0.3985540473470474
0.4389326591502216 -0.26851952056596584
0.4389688919896639 -0.13818940146144137
0.43942059721017845 -0.007368892196717021
0.2645955337410844 -0.007722228384981926
0.2649155143852121 -0.13822591673560183
0.2649254607825491 -0.26852178138527455
0.26496091802386945 -0.39855855723084377
0.26508081761288804 -0.5282825936255418
0.26529371502343363 -0.657632988430339
0.2656058090407699 -0.7865035639020457
0.2660546439105585 -0.9147058056547285
0.2667283947703846 -1.0418831857838933
0.26775544275838703 -1.1674684296437725
0.2692606493293591 -1.290690656723972
0.2713315762471947 -1.4105946272360717
0.274034912369675 -1.52604669675368
0.277459200320392 -1.635741434560579
0.2817296096860479 -1.7381471729912985
0.2870143765449183 -1.8314519975525618
0.2935152780677171 -1.913530680758842
0.3014475270185548 -1.981984665386428
0.3110059012537957 -2.034291749446936
0.3224051518707259 -2.068015328649768
0.33575669153786863 -2.081006045110798
0.3491082312050108 -2.068015328649707
0.36050748182193887 -2.0342917494468127
0.37006585605717635 -1.9819846653862507
0.37799810500801007 -1.9135306807586225
0.3844990065308048 -1.8314519975523125
0.3897837733896714 -1.738147172991027
0.3940541827553238 -1.6357414345602923
0.3974784707060378 -1.5260466967533861
0.40018180682851473 -1.4105946272357794
0.4022527337463473 -1.2906906567236907
0.40375794031731654 -1.167468429643509
0.40478498830531706 -1.041883185783651
0.40545873916514197 -0.9147058056545107
0.40590757403492983 -0.7865035639018549
0.40621966805226584 -0.657632988430178
0.4064325654628112 -0.5282825936254095
0.40655246505182974 -0.39855855723074135
0.40658792229315005 -0.2685217813852013
0.4065978686904869 -0.1382259167355579
0.40691784933461395 -0.007722228384969296
0.2970398235114458 -0.007993146906901396
0.29726907119058427 -0.13826435953882907
0.2972524003364103 -0.2685210844396119
0.29723146665806405 -0.3985554470255408
0.2972635379378997 -0.5282901317555595
0.29735651574813016 -0.6576522903109769
0.29750894930415206 -0.786534298718299
0.297734162162019 -0.9147517065658928
0.29806704684772417 -1.041954746815609
0.2985651003429478 -1.1675881863772024
0.2992901083410101 -1.2908845407113312
0.30030265157777275 -1.410882744465442
0.30163353561705886 -1.5264443158137342
0.3033284260996844 -1.6362707900857083
0.30545109474748716 -1.7388374250141019
0.308091169929789 -1.8323421697366158
0.31138298803577263 -1.9146682408220743
0.3155176825375167 -1.9834237097254785
0.32074362067531753 -2.036088862876772
0.32733264643771476 -2.070250812013637
0.3357566915378618 -2.0837252809434204
0.3441807366380087 -2.0702508120135756
0.350769762400405 -2.0360888628766483
0.3559957005382035 -1.9834237097253007
0.36013039503994526 -1.9146682408218545
0.363422213145927 -1.8323421697363655
0.3660622883282271 -1.7388374250138299
0.3681849569760285 -1.636270790085421
0.36987984745865293 -1.5264443158134395
0.37121073149793765 -1.4108827444651495
0.3722232747346991 -1.2908845407110496
0.37294828273276015 -1.1675881863769386
0.3734463362279832 -1.0419547468153665
0.3737792209136878 -0.9147517065656751
0.37400443377155446 -0.7865342987181084
0.3741568673275763 -0.657652290310816
0.3742498451378067 -0.5282901317554272
0.37428191641764236 -0.3985554470254384
0.37426098273929603 -0.26852108443953854
0.3742443118851221 -0.1382643595387851
0.37447355956426015 -0.007993146906888323
0.3294411605317757 -0.008202782292841453
0.3296065797142347 -0.13830409081444303
0.3295658617901347 -0.26851706016521176
0.3294916939567836 -0.39854524209692943
0.32943899147523087 -0.5282859025709001
0.32941275466320874 -0.6576553556149684
0.3294032673148202 -0.7865436990567422
0.3294011040816649 -0.9147669660678889
0.32940095965222166 -1.041977606842383
0.3294012712473831 -1.167623332776667
0.32940140099558946 -1.2909363744994966
0.3294019218360527 -1.4109576326270532
0.3294002836237223 -1.5265474591885215
0.3293950037370427 -1.636408592809573
0.32938643890456226 -1.739020260538207
0.3293902673884539 -1.8325901891078233
0.3294762447900304 -1.915015651442913
0.32981788712770427 -1.98392706945377
0.3307171647770821 -2.036823397837927
0.33253336202810857 -2.071303539431444
0.3357566915378548 -2.0852856216269866
0.33898002104760133 -2.071303539431383
0.34079621829862755 -2.036823397837803
0.34169549594800447 -1.983927069453592
0.3420371382856782 -1.9150156514426933
0.3421231156872551 -1.832590189107573
0.3421269441711471 -1.7390202605379346
0.34211837933866723 -1.6364085928092857
0.3421130994519885 -1.5265474591882269
0.3421114612396588 -1.410957632626761
0.34211198208012283 -1.290936374499215
0.3421121118283295 -1.167623332776403
0.34211242342349135 -1.0419776068421402
0.3421122789940483 -0.914766966067671
0.34211011576089306 -0.7865436990565514
0.34210062841250466 -0.6576553556148073
0.3420743916004826 -0.5282859025707678
0.34202168911893 -0.398545242096827
0.34194752128557887 -0.2685170601651383
0.34190680336147894 -0.13830409081439912
0.3420722225439377 -0.008202782292828118
0.3618111929147234 -0.008367570925353972
0.36193262660329434 -0.13834255552634372
0.3618698752637438 -0.2685100227195575
0.3617459595505475 -0.3985282778310174
0.36161152591179424 -0.5282703620446193
0.36146825087685885 -0.657642292805066
0.36129791508474646 -0.7865314642395012
0.36106786836994653 -0.914751214966551
0.36073487074466065 -1.0419548711398863
0.36023742885423704 -1.1675882247122829
0.3595133119099178 -1.2908849262448485
0.3585013362889084 -1.4108824699637117
0.3571671150646602 -1.526442939064731
0.35546176571962557 -1.636267951978254
0.3533215273615178 -1.7388348359147014
0.350689813486122 -1.8323559972513177
0.34756292115905063 -1.914748275887666
0.34405969503989126 -1.98367175467223
0.3404784686788799 -2.036653578289776
0.3373154169465869 -2.071282230908695
0.33575669153784793 -2.085801849066094
0.3341979661291087 -2.0712822309086336
0.33103491439681554 -2.0366535782896524
0.3274536880358055 -1.9836717546720517
0.32395046191664856 -1.9147482758874461
0.32082356958957997 -1.832355997251068
0.31819185571418657 -1.7388348359144292
0.31605161735608134 -1.636267951977967
0.3143462680110494 -1.5264429390644365
0.3130120467868042 -1.4108824699634197
0.3120000711657974 -1.2908849262445672
0.31127595422148036 -1.167588224712019
0.3107785123310581 -1.0419548711396438
0.310445514705773 -0.9147512149663332
0.31021546799097355 -0.7865314642393104
0.3100451321988615 -0.6576422928049049
0.3099018571639263 -0.528270362044487
0.3097674235251732 -0.39852827783091493
0.309643507811977 -0.26851002271948404
0.30958075647242655 -0.13834255552629984
0.3097021901609974 -0.008367570925340443
0.3941658297026199 -0.008494815092171572
0.39425208513148974 -0.1383780078913424
0.3941691250394544 -0.2685000630100295
0.3939986509881587 -0.3985049503381419
0.39378576066507154 -0.5282440999005888
0.39352859580892985 -0.6576134433798675
0.3931999758803541 -0.7864979536194752
0.3927472799269597 -0.9147048574153612
0.39207339524799456 -1.0418834183688161
0.3910474267308499 -1.1674686994890864
0.38954301578089673 -1.2906911088079682
0.3874720527383443 -1.4105940117208238
0.38476621575020914 -1.5260437576302224
0.3813330301517154 -1.6357348993955692
0.3770457417551812 -1.7381413490454467
0.37176434038306294 -1.8314796307915306