# vtk DataFile Version 3.0
Some data
ASCII
DATASET UNSTRUCTURED_GRID
POINTS 861 float
0.0 0.0 0.0
0.4 0.0 0.0
0.8 0.0 0.0
1.2000000000000002 0.0 0.0
1.6 0.0 0.0
2.0 0.0 0.0
2.4000000000000004 0.0 0.0
2.8000000000000003 0.0 0.0
3.2 0.0 0.0
3.6 0.0 0.0
4.0 0.0 0.0
4.4 0.0 0.0
4.800000000000001 0.0 0.0
5.2 0.0 0.0
5.6000000000000005 0.0 0.0
6.0 0.0 0.0
6.4 0.0 0.0
6.800000000000001 0.0 0.0
7.2 0.0 0.0
7.6000000000000005 0.0 0.0
8.0 0.0 0.0
8.4 0.0 0.0
8.8 0.0 0.0
9.200000000000001 0.0 0.0
9.600000000000001 0.0 0.0
10.0 0.0 0.0
10.4 0.0 0.0
10.8 0.0 0.0
11.200000000000001 0.0 0.0
11.600000000000001 0.0 0.0
12.0 0.0 0.0
12.4 0.0 0.0
12.8 0.0 0.0
13.200000000000001 0.0 0.0
13.600000000000001 0.0 0.0
14.0 0.0 0.0
14.4 0.0 0.0
14.8 0.0 0.0
15.200000000000001 0.0 0.0
15.600000000000001 0.0 0.0
16.0 0.0 0.0
0.0 0.1 0.0
0.4 0.1 0.0
0.8 0.1 0.0
1.2000000000000002 0.1 0.0
1.6 0.1 0.0
2.0 0.1 0.0
2.4000000000000004 0.1 0.0
2.8000000000000003 0.1 0.0
3.2 0.1 0.0
3.6 0.1 0.0
4.0 0.1 0.0
4.4 0.1 0.0
4.800000000000001 0.1 0.0
5.2 0.1 0.0
5.6000000000000005 0.1 0.0
6.0 0.1 0.0
6.4 0.1 0.0
6.800000000000001 0.1 0.0
7.2 0.1 0.0
7.6000000000000005 0.1 0.0
8.0 0.1 0.0
8.4 0.1 0.0
8.8 0.1 0.0
9.200000000000001 0.1 0.0
9.600000000000001 0.1 0.0
10.0 0.1 0.0
10.4 0.1 0.0
10.8 0.1 0.0
11.200000000000001 0.1 0.0
11.600000000000001 0.1 0.0
12.0 0.1 0.0
12.4 0.1 0.0
12.8 0.1 0.0
13.200000000000001 0.1 0.0
13.600000000000001 0.1 0.0
14.0 0.1 0.0
14.4 0.1 0.0
14.8 0.1 0.0
15.200000000000001 0.1 0.0
15.600000000000001 0.1 0.0
16.0 0.1 0.0
0.0 0.2 0.0
0.4 0.2 0.0
0.8 0.2 0.0
1.2000000000000002 0.2 0.0
1.6 0.2 0.0
2.0 0.2 0.0
2.4000000000000004 0.2 0.0
2.8000000000000003 0.2 0.0
3.2 0.2 0.0
3.6 0.2 0.0
4.0 0.2 0.0
4.4 0.2 0.0
4.800000000000001 0.2 0.0
5.2 0.2 0.0
5.6000000000000005 0.2 0.0
6.0 0.2 0.0
6.4 0.2 0.0
6.800000000000001 0.2 0.0
7.2 0.2 0.0
7.6000000000000005 0.2 0.0
8.0 0.2 0.0
8.4 0.2 0.0
8.8 0.2 0.0
9.200000000000001 0.2 0.0
9.600000000000001 0.2 0.0
10.0 0.2 0.0
10.4 0.2 0.0
10.8 0.2 0.0
11.200000000000001 0.2 0.0
11.600000000000001 0.2 0.0
12.0 0.2 0.0
12.4 0.2 0.0
12.8 0.2 0.0
13.200000000000001 0.2 0.0
13.600000000000001 0.2 0.0
14.0 0.2 0.0
14.4 0.2 0.0
14.8 0.2 0.0
15.200000000000001 0.2 0.0
15.600000000000001 0.2 0.0
16.0 0.2 0.0
0.0 0.30000000000000004 0.0
0.4 0.30000000000000004 0.0
0.8 0.30000000000000004 0.0
1.2000000000000002 0.30000000000000004 0.0
1.6 0.30000000000000004 0.0
2.0 0.30000000000000004 0.0
2.4000000000000004 0.30000000000000004 0.0
2.8000000000000003 0.30000000000000004 0.0
3.2 0.30000000000000004 0.0
3.6 0.30000000000000004 0.0
4.0 0.30000000000000004 0.0
4.4 0.30000000000000004 0.0
4.800000000000001 0.30000000000000004 0.0
5.2 0.30000000000000004 0.0
5.6000000000000005 0.30000000000000004 0.0
6.0 0.30000000000000004 0.0
6.4 0.30000000000000004 0.0
6.800000000000001 0.30000000000000004 0.0
7.2 0.30000000000000004 0.0
7.6000000000000005 0.30000000000000004 0.0
8.0 0.30000000000000004 0.0
8.4 0.30000000000000004 0.0
8.8 0.30000000000000004 0.0
9.200000000000001 0.30000000000000004 0.0
9.600000000000001 0.30000000000000004 0.0
10.0 0.30000000000000004 0.0
10.4 0.30000000000000004 0.0
10.8 0.30000000000000004 0.0
11.200000000000001 0.30000000000000004 0.0
11.600000000000001 0.30000000000000004 0.0
12.0 0.30000000000000004 0.0
12.4 0.30000000000000004 0.0
12.8 0.30000000000000004 0.0
13.200000000000001 0.30000000000000004 0.0
13.600000000000001 0.30000000000000004 0.0
14.0 0.30000000000000004 0.0
14.4 0.30000000000000004 0.0
14.8 0.30000000000000004 0.0
15.200000000000001 0.30000000000000004 0.0
15.600000000000001 0.30000000000000004 0.0
16.0 0.30000000000000004 0.0
0.0 0.4 0.0
0.4 0.4 0.0
0.8 0.4 0.0
1.2000000000000002 0.4 0.0
1.6 0.4 0.0
2.0 0.4 0.0
2.4000000000000004 0.4 0.0
2.8000000000000003 0.4 0.0
3.2 0.4 0.0
3.6 0.4 0.0
4.0 0.4 0.0
4.4 0.4 0.0
4.800000000000001 0.4 0.0
5.2 0.4 0.0
5.6000000000000005 0.4 0.0
6.0 0.4 0.0
6.4 0.4 0.0
6.800000000000001 0.4 0.0
7.2 0.4 0.0
7.6000000000000005 0.4 0.0
8.0 0.4 0.0
8.4 0.4 0.0
8.8 0.4 0.0
9.200000000000001 0.4 0.0
9.600000000000001 0.4 0.0
10.0 0.4 0.0
10.4 0.4 0.0
10.8 0.4 0.0
11.200000000000001 0.4 0.0
11.600000000000001 0.4 0.0
12.0 0.4 0.0
12.4 0.4 0.0
12.8 0.4 0.0
13.200000000000001 0.4 0.0
13.600000000000001 0.4 0.0
14.0 0.4 0.0
14.4 0.4 0.0
14.8 0.4 0.0
15.200000000000001 0.4 0.0
15.600000000000001 0.4 0.0
16.0 0.4 0.0
0.0 0.5 0.0
0.4 0.5 0.0
0.8 0.5 0.0
1.2000000000000002 0.5 0.0
1.6 0.5 0.0
2.0 0.5 0.0
2.4000000000000004 0.5 0.0
2.8000000000000003 0.5 0.0
3.2 0.5 0.0
3.6 0.5 0.0
4.0 0.5 0.0
4.4 0.5 0.0
4.800000000000001 0.5 0.0
5.2 0.5 0.0
5.6000000000000005 0.5 0.0
6.0 0.5 0.0
6.4 0.5 0.0
6.800000000000001 0.5 0.0
7.2 0.5 0.0
7.6000000000000005 0.5 0.0
8.0 0.5 0.0
8.4 0.5 0.0
8.8 0.5 0.0
9.200000000000001 0.5 0.0
9.600000000000001 0.5 0.0
10.0 0.5 0.0
10.4 0.5 0.0
10.8 0.5 0.0
11.200000000000001 0.5 0.0
11.600000000000001 0.5 0.0
12.0 0.5 0.0
12.4 0.5 0.0
12.8 0.5 0.0
13.200000000000001 0.5 0.0
13.600000000000001 0.5 0.0
14.0 0.5 0.0
14.4 0.5 0.0
14.8 0.5 0.0
15.200000000000001 0.5 0.0
15.600000000000001 0.5 0.0
16.0 0.5 0.0
0.0 0.6000000000000001 0.0
0.4 0.6000000000000001 0.0
0.8 0.6000000000000001 0.0
1.2000000000000002 0.6000000000000001 0.0
1.6 0.6000000000000001 0.0
2.0 0.6000000000000001 0.0
2.4000000000000004 0.6000000000000001 0.0
2.8000000000000003 0.6000000000000001 0.0
3.2 0.6000000000000001 0.0
3.6 0.6000000000000001 0.0
4.0 0.6000000000000001 0.0
4.4 0.6000000000000001 0.0
4.800000000000001 0.6000000000000001 0.0
5.2 0.6000000000000001 0.0
5.6000000000000005 0.6000000000000001 0.0
6.0 0.6000000000000001 0.0
6.4 0.6000000000000001 0.0
6.800000000000001 0.6000000000000001 0.0
7.2 0.6000000000000001 0.0
7.6000000000000005 0.6000000000000001 0.0
8.0 0.6000000000000001 0.0
8.4 0.6000000000000001 0.0
8.8 0.6000000000000001 0.0
9.200000000000001 0.6000000000000001 0.0
9.600000000000001 0.6000000000000001 0.0
10.0 0.6000000000000001 0.0
10.4 0.6000000000000001 0.0
10.8 0.6000000000000001 0.0
11.200000000000001 0.6000000000000001 0.0
11.600000000000001 0.6000000000000001 0.0
12.0 0.6000000000000001 0.0
12.4 0.6000000000000001 0.0
12.8 0.6000000000000001 0.0
13.200000000000001 0.6000000000000001 0.0
13.600000000000001 0.6000000000000001 0.0
14.0 0.6000000000000001 0.0
14.4 0.6000000000000001 0.0
14.8 0.6000000000000001 0.0
15.200000000000001 0.6000000000000001 0.0
15.600000000000001 0.6000000000000001 0.0
16.0 0.6000000000000001 0.0
0.0 0.7000000000000001 0.0
0.4 0.7000000000000001 0.0
0.8 0.7000000000000001 0.0
1.2000000000000002 0.7000000000000001 0.0
1.6 0.7000000000000001 0.0
2.0 0.7000000000000001 0.0
2.4000000000000004 0.7000000000000001 0.0
2.8000000000000003 0.7000000000000001 0.0
3.2 0.7000000000000001 0.0
3.6 0.7000000000000001 0.0
4.0 0.7000000000000001 0.0
4.4 0.7000000000000001 0.0
4.800000000000001 0.7000000000000001 0.0
5.2 0.7000000000000001 0.0
5.6000000000000005 0.7000000000000001 0.0
6.0 0.7000000000000001 0.0
6.4 0.7000000000000001 0.0
6.800000000000001 0.7000000000000001 0.0
7.2 0.7000000000000001 0.0
7.6000000000000005 0.7000000000000001 0.0
8.0 0.7000000000000001 0.0
8.4 0.7000000000000001 0.0
8.8 0.7000000000000001 0.0
9.200000000000001 0.7000000000000001 0.0
9.600000000000001 0.7000000000000001 0.0
10.0 0.7000000000000001 0.0
10.4 0.7000000000000001 0.0
10.8 0.7000000000000001 0.0
11.200000000000001 0.7000000000000001 0.0
11.600000000000001 0.7000000000000001 0.0
12.0 0.7000000000000001 0.0
12.4 0.7000000000000001 0.0
12.8 0.7000000000000001 0.0
13.200000000000001 0.7000000000000001 0.0
13.600000000000001 0.7000000000000001 0.0
14.0 0.7000000000000001 0.0
14.4 0.7000000000000001 0.0
14.8 0.7000000000000001 0.0
15.200000000000001 0.7000000000000001 0.0
15.600000000000001 0.7000000000000001 0.0
16.0 0.7000000000000001 0.0
0.0 0.8 0.0
0.4 0.8 0.0
0.8 0.8 0.0
1.2000000000000002 0.8 0.0
1.6 0.8 0.0
2.0 0.8 0.0
2.4000000000000004 0.8 0.0
2.8000000000000003 0.8 0.0
3.2 0.8 0.0
3.6 0.8 0.0
4.0 0.8 0.0
4.4 0.8 0.0
4.800000000000001 0.8 0.0
5.2 0.8 0.0
5.6000000000000005 0.8 0.0
6.0 0.8 0.0
6.4 0.8 0.0
6.800000000000001 0.8 0.0
7.2 0.8 0.0
7.6000000000000005 0.8 0.0
8.0 0.8 0.0
8.4 0.8 0.0
8.8 0.8 0.0
9.200000000000001 0.8 0.0
9.600000000000001 0.8 0.0
10.0 0.8 0.0
10.4 0.8 0.0
10.8 0.8 0.0
11.200000000000001 0.8 0.0
11.600000000000001 0.8 0.0
12.0 0.8 0.0
12.4 0.8 0.0
12.8 0.8 0.0
13.200000000000001 0.8 0.0
13.600000000000001 0.8 0.0
14.0 0.8 0.0
14.4 0.8 0.0
14.8 0.8 0.0
15.200000000000001 0.8 0.0
15.600000000000001 0.8 0.0
16.0 0.8 0.0
0.0 0.9 0.0
0.4 0.9 0.0
0.8 0.9 0.0
1.2000000000000002 0.9 0.0
1.6 0.9 0.0
2.0 0.9 0.0
2.4000000000000004 0.9 0.0
2.8000000000000003 0.9 0.0
3.2 0.9 0.0
3.6 0.9 0.0
4.0 0.9 0.0
4.4 0.9 0.0
4.800000000000001 0.9 0.0
5.2 0.9 0.0
5.6000000000000005 0.9 0.0
6.0 0.9 0.0
6.4 0.9 0.0
6.800000000000001 0.9 0.0
7.2 0.9 0.0
7.6000000000000005 0.9 0.0
8.0 0.9 0.0
8.4 0.9 0.0
8.8 0.9 0.0
9.200000000000001 0.9 0.0
9.600000000000001 0.9 0.0
10.0 0.9 0.0
10.4 0.9 0.0
10.8 0.9 0.0
11.200000000000001 0.9 0.0
11.600000000000001 0.9 0.0
12.0 0.9 0.0
12.4 0.9 0.0
12.8 0.9 0.0
13.200000000000001 0.9 0.0
13.600000000000001 0.9 0.0
14.0 0.9 0.0
14.4 0.9 0.0
14.8 0.9 0.0
15.200000000000001 0.9 0.0
15.600000000000001 0.9 0.0
16.0 0.9 0.0
0.0 1.0 0.0
0.4 1.0 0.0
0.8 1.0 0.0
1.2000000000000002 1.0 0.0
1.6 1.0 0.0
2.0 1.0 0.0
2.4000000000000004 1.0 0.0
2.8000000000000003 1.0 0.0
3.2 1.0 0.0
3.6 1.0 0.0
4.0 1.0 0.0
4.4 1.0 0.0
4.800000000000001 1.0 0.0
5.2 1.0 0.0
5.6000000000000005 1.0 0.0
6.0 1.0 0.0
6.4 1.0 0.0
6.800000000000001 1.0 0.0
7.2 1.0 0.0
7.6000000000000005 1.0 0.0
8.0 1.0 0.0
8.4 1.0 0.0
8.8 1.0 0.0
9.200000000000001 1.0 0.0
9.600000000000001 1.0 0.0
10.0 1.0 0.0
10.4 1.0 0.0
10.8 1.0 0.0
11.200000000000001 1.0 0.0
11.600000000000001 1.0 0.0
12.0 1.0 0.0
12.4 1.0 0.0
12.8 1.0 0.0
13.200000000000001 1.0 0.0
13.600000000000001 1.0 0.0
14.0 1.0 0.0
14.4 1.0 0.0
14.8 1.0 0.0
15.200000000000001 1.0 0.0
15.600000000000001 1.0 0.0
16.0 1.0 0.0
0.0 1.1 0.0
0.4 1.1 0.0
0.8 1.1 0.0
1.2000000000000002 1.1 0.0
1.6 1.1 0.0
[...]
POINT_DATA 861
SCALARS Disp float 2
LOOKUP_TABLE default
0.0 0.0
0.005891438416994824 -0.25897263993433556
0.007240709914568073 -0.5086165455598514
0.008030459901415949 -0.7571882078882309
0.00905731586144067 -1.0053868940863016
0.010735285016905996 -1.2527888520689412
0.013706482954139312 -1.4988286824956616
0.018757897091876995 -1.7427937704753085
0.026816856848046765 -1.983792283955682
0.03889443764567243 -2.2206608640579053
0.055998825110050485 -2.4518286459921868
0.07907721377206946 -2.675237220163837
0.10898874446559521 -2.8883709798310147
0.14649550151402946 -3.0883756017023285
0.19225867694764648 -3.2721435089060757
0.24677064152083958 -3.436382186883416
0.31023286010221246 -3.577702363399208
0.38240992360905857 -3.6927599412033603
0.46250560626077647 -3.7784851581987238
0.549112931655914 -3.832330672608387
0.6399983176073811 -3.852568550673001
0.7308837035588437 -3.8323306726082658
0.8174910289539624 -3.778485158198478
0.8975867116056492 -3.6927599412030045
0.969763775112455 -3.577702363398762
1.033225993693784 -3.4363821868829065
1.0877379582669329 -3.2721435089055175
1.133501133700506 -3.0883756017017374
1.1710078907488972 -2.88837097983041
1.2009194214423806 -2.675237220163236
1.2239978101043623 -2.4518286459916077
1.2411021975687098 -2.22066086405736
1.253179778366311 -1.9837922839551785
1.2612387381224632 -1.7427937704748542
1.2662901522601888 -1.4988286824952612
1.2692613501974148 -1.2527888520686024
1.270939319352877 -1.005386894086024
1.2719661753129006 -0.7571882078880183
1.2727559252997482 -0.5086165455597025
1.27410519679732 -0.2589726399342534
1.2799966352143115 0.0
0.06459673462960337 -0.0024459248152452827
0.06872658958141886 -0.2592457154587533
0.06942859187217658 -0.5086788990260284
0.07012802962515777 -0.7572785048921471
0.07102721187159376 -1.0055357794113708
0.07245170737513942 -1.2531217714532623
0.07500506412305243 -1.4995228610100269
0.07943036460415183 -1.7440611630016973
0.08659842964583638 -1.9858698458350226
0.09743245502414857 -2.223790046358621
0.112832020423863 -2.456239410875824
0.1336270675237668 -2.6811406482292717
0.16057526025151223 -2.895958564977566
0.19436930837701544 -3.0978185136762084
0.2356129132982364 -3.283584902332427
0.28476535138155384 -3.449914218160269
0.3420323811924596 -3.5933328449435176
0.4072365427505129 -3.7103785715411886
0.47969710099836177 -3.79783636952046
0.5580769742282679 -3.8529875641818454
0.6399983176073664 -3.8737658247069864
0.7219196609864599 -3.852987564181721
0.8002995342163488 -3.7978363695202084
0.8727600924641702 -3.7103785715408244
0.9379642540221886 -3.593332844943062
0.9952312838330554 -3.4499142181597495
1.0443837219163328 -3.2835849023318584
1.085627326837514 -3.0978185136756067
1.1194213749629784 -2.895958564976951
1.146369567690686 -2.6811406482286615
1.167164614790556 -2.456239410875237
1.1825641801902427 -2.22379004635807
1.1933982055685328 -1.9858698458345143
1.2005662706102014 -1.7440611630012395
1.20499157109129 -1.4995228610096243
1.2075449278391965 -1.2531217714529221
1.2089694233427397 -1.005535779411093
1.2098686055891748 -0.7572785048919344
1.210568043342156 -0.5086788990258795
1.2112700456329135 -0.25924571545867076
1.2153999005847236 -0.0024459248152427964
0.1282010068786744 -0.004390373397403444
0.13123469995196696 -0.25938153399670544
0.13163625775141594 -0.5087113853529269
0.1322065995590653 -0.7573579622230181
0.13298825129216718 -1.0056541700755994
0.1341849635091867 -1.2533851578130377
0.13633079835900214 -1.500097961706673
0.14013291475330006 -1.7451487635023095
0.14639457991108645 -1.987689974639402
0.15595395423176162 -2.2265605888470774
0.16960714648089914 -2.4601629262355624
0.1880768817650996 -2.686401034032854
0.21202152877843275 -2.9027251693737943
0.2420522842467441 -3.1062468354528896
0.2787197580375367 -3.2938064498750768
0.32245140480865664 -3.462017392283041
0.37346785618199135 -3.6073344734419304
0.4316660317079439 -3.72619130590146
0.4964701466131547 -3.8152333888077874
0.5666099106365502 -3.871535444916054
0.6399983176073518 -3.8928000873543964
0.7133867245781487 -3.871535444915927
0.7835264886015287 -3.81523338880753
0.8483306035067153 -3.7261913059010885
0.9065287790326375 -3.607334473441466
0.9575452304059378 -3.462017392282513
1.0012768771770222 -3.2938064498744994
1.037944350967779 -3.1062468354522794
1.0679751064360559 -2.9027251693731704
1.0919197534493559 -2.6864010340322353
1.1103894887335262 -2.460162926234968
1.1240426809826387 -2.22656058884652
1.1336020553032942 -1.987689974638889
1.1398637204610662 -1.7451487635018488
1.1436658368553545 -1.5000979617062686
1.1458116717051647 -1.2533851578126964
1.1470083839221823 -1.0056541700753214
1.1477900356552835 -0.7573579622228056
1.148360377462933 -0.508711385352778
1.148761935262382 -0.25938153399662256
1.151795628335669 -0.0043903733973981625
0.19128104706113327 -0.005954269684468961
0.1935771093336134 -0.25947417953231716
0.19382174422554976 -0.5087292454619265
0.19426779723885854 -0.7574220454619899
0.1949354916871907 -1.0057502781442769
0.19593176831835155 -1.2535872179262657
0.19769378785565417 -1.500558089825432
0.20088029764523102 -1.7460576291539749
0.2062303614823608 -1.9892492469568699
0.2144969858899826 -2.2289661190293444
0.2263776352521625 -2.463591337928638
0.2424921162435396 -2.6910109263078095
0.2634037772996807 -2.90866312859262
0.2896410871844346 -3.113650468005713
0.32169036787749616 -3.3027962968117457
0.35995438530401214 -3.4726794713532936
0.4046727445373559 -3.6196966738517293
0.4558154294643395 -3.7401906809516645
0.5129196103374873 -3.8306687441708447
0.574902532820051 -3.888021243306101
0.6399983176073378 -3.9097770277473316
0.7050941023946202 -3.888021243305972
0.76707702487717 -3.8306687441705827
0.8241812057502962 -3.7401906809512866
0.8753238906772535 -3.6196966738512573
0.9200422499105675 -3.472679471352757
0.9583062673370522 -3.30279629681116
0.9903555480300821 -3.113650468005094
1.0165928579148058 -2.908663128591989
1.037504518970918 -2.691010926307184
1.0536189999622687 -2.463591337928037
1.0654996493244266 -2.228966119028782
1.073766273732031 -1.9892492469563532
1.0791163375691482 -1.7460576291535115
1.082302847358717 -1.5005580898250261
1.0840648668960151 -1.2535872179259242
1.0850611435271746 -1.0057502781439986
1.0857288379755066 -0.7574220454617774
1.0861748909888154 -0.5087292454617779
1.0864195258807516 -0.25947417953223395
1.0887155881532269 -0.00595426968446116
0.2540622679619977 -0.007218895421501543
0.25580630093842976 -0.25954614934653963
0.25596580003752123 -0.508739494202593
0.2563072744104872 -0.7574717066560638
0.25686519051037665 -1.0058283400057153
0.25768438325492987 -1.253739959799426
0.2591009173077698 -1.5009114200399545
0.26168632549025167 -1.7467907158908023
0.2661310727461964 -1.9905477570450154
0.27309966294087973 -2.231003854604851
0.28319532385707574 -2.466520755399617
0.2969395899923243 -2.694965764743079
0.3148003362633981 -2.913767798502995
0.33722456486258795 -3.1200243281643765
0.36463808127403746 -3.3105472945262275
0.3974055883006312 -3.481891392731658
0.43578176567567956 -3.630408477587739
0.4798118000205781 -3.7523638993953203
0.5291808746864981 -3.8441436936738995
0.5830529943454326 -3.902480286148269
0.6399983176073242 -3.9247545146340865
0.6969436408692116 -3.902480286148137
0.7508157605281335 -3.8441436936736335
0.8001848351940344 -3.7523638993949366
0.8442148695389103 -3.630408477587261
0.882591046913933 -3.4818913927311144
0.9153585539404997 -3.3105472945256347
0.942772070351922 -3.120024328163751
0.965196298951086 -2.9137677985023562
0.9830570452221349 -2.6949657647424474
0.9968013113573614 -2.466520755399011
1.0068969722735386 -2.2310038546042845
1.0138655624682067 -1.9905477570444954
1.0183103097241406 -1.7467907158903366
1.020895717906616 -1.5009114200395475
1.0223122519594525 -1.253739959799084
1.0231314447040047 -1.005828340005437
1.0236893608038942 -0.7574717066558512
1.02403083517686 -0.5087394942024445
1.0241903342759515 -0.25954614934645615
1.0259343672523793 -0.007218895421491515
0.3166462518087358 -0.008235506321388968
0.3179565157156632 -0.2596051482567938
0.3180666083215202 -0.5087468575944916
0.3183219467131331 -0.7575085227580599
0.31877303410957786 -1.005891617496591
0.3194367106603789 -1.2538541575677853
0.3205450131891257 -1.5011714715389184
0.32257129741361296 -1.747354146148683
0.32612210697941674 -1.9915885241001725
0.3318001675537437 -2.232674814330613
0.3401120675439102 -2.4689507442923913
0.3514839964398648 -2.698264823647206
0.3662917770595676 -2.918038083752865
0.38489968101898253 -3.1253668890860498
0.40766888275776203 -3.3170577479151135
0.43493203123386126 -3.4896486024693987
0.46693988313047896 -3.639459537916516
0.503802338148137 -3.7626981595887257
0.5453841188542341 -3.8556553161720735
0.5911409029429456 -3.9149303948261602
0.6399983176073104 -3.9377668667981873
0.6888557322716711 -3.914930394826027
0.7346125163603716 -3.8556553161718035
0.7761942970664527 -3.7626981595883366
0.8130567520840914 -3.639459537916033
0.8450646039806875 -3.489648602468849
0.8723277524567639 -3.3170577479145145
0.8950969541955209 -3.1253668890854183
0.9137048581549141 -2.9180380837522213
0.9285126387745964 -2.698264823646569
0.9398845676705326 -2.468950744291781
0.9481964676606833 -2.232674814330043
0.9538745282349977 -1.9915885240996498
0.9574253378007928 -1.7473541461482154
0.9594516220252748 -1.5011714715385103
0.9605599245540192 -1.253854157567443
0.9612236011048195 -1.0058916174963126
0.9616746885012644 -0.7575085227578474
0.9619300268928771 -0.5087468575943429
0.9620401194987341 -0.25960514825671005
0.963350383405658 -0.00823550632137705
0.379086208817983 -0.009043300525710805
0.38005123011008 -0.25965416365675803
0.38012940817985186 -0.5087537213299401
0.3803115985415974 -0.7575339559347067
0.38065767940366135 -1.0059418937788456
0.3811811346013438 -1.253938892702536
0.3820170299744744 -1.5013544373434793
0.38353346482940887 -1.7477626285396402
0.3862327315801718 -1.99237815551917
0.39063752553718895 -2.233983540929485
0.39718060708633424 -2.47088485176401
0.4061922772426932 -2.700911121491679
0.41795840664629413 -2.9214770654628652
0.4327619482710638 -3.1296811209051305
0.4508992413213711 -3.322329570929513
0.4726604517951658 -3.4959513271599816
0.4982903425221512 -3.6468442820636677
0.5279481097948063 -3.771180684898449
0.5616709148812842 -3.865191766928926
0.599245710614835 -3.9253717113432476
0.6399983176072962 -3.9488289562413486
0.6807509245997541 -3.925371711343112
0.7183257203332957 -3.8651917669286533
0.7520485254197601 -3.7711806848980562
0.7817062926923994 -3.6468442820631797
0.8073361834193674 -3.495951327159427
0.8290973938931434 -3.322329570928909
0.8472346869434327 -3.1296811209044946
0.8620382285681852 -2.9214770654622164
0.8738043579717704 -2.700911121491038
0.8828160281281142 -2.4708848517633957
0.8893591096772471 -2.2339835409289117
0.8937639036342543 -1.992378155518645
0.8964631703850104 -1.7477626285391712
0.897979605239941 -1.5013544373430707
0.8988155006130701 -1.2539388927021937
0.8993389558107521 -1.0059418937785671
0.899685036672816 -0.7575339559344941
0.8998672270345615 -0.5087537213297915
0.8999454051043333 -0.25965416365667404
0.9009104263964278 -0.009043300525697339
0.441417637891541 -0.009673815299885136
0.4421079749798202 -0.2596954776945994
0.4421617661532147 -0.5087605880688775
0.44227811054045824 -0.7575492993818727
0.44252070586516684 -1.0059792013087818
0.4429099204374529 -1.254001204957901
0.4435113514878518 -1.501475841811393
0.44456859776434854 -1.7480361052865467
0.4464765423634815 -1.9929320801315777
0.449654453148127 -2.234939161848637
0.45445598034524065 -2.472330554063623
0.4611316364198363 -2.702911840241797
0.46988312500349066 -2.9240923959448577
0.48091093137750685 -3.132974735761876
0.49444158151307477 -3.326369818342519
0.5107225194984956 -3.5008044152279676
0.5299854323082429 -3.6525627364598794
0.5524151627786957 -3.7778010346310884
0.5781952135129829 -3.872731903497974
0.6074572608780254 -3.9337849825234588
0.6399983176072815 -3.9579359205120523
0.6725393743365355 -3.9337849825233215
0.7018014217015709 -3.8727319034976992
0.7275814724358475 -3.7778010346306927
0.7500112029062881 -3.652562736459388
0.7692741157160219 -3.500804415227408
0.7855550537014281 -3.3263698183419117
0.799085703836983 -3.1329747357612363
0.8101135102109867 -2.9240923959442053
0.8188649987946296 -2.702911840241152
0.8255406548692139 -2.4723305540630056
0.8303421820663182 -2.234939161848061
0.8335200928509569 -1.992932080131051
0.8354280374500848 -1.748036105286077
0.8364852837265787 -1.501475841810984
0.8370867147769769 -1.2540012049575586
0.8374759293492626 -1.0059792013085034
0.8377185246739712 -0.75754929938166
0.8378348690612147 -0.5087605880687288
0.8378886602346092 -0.25969547769451534
0.8385789973228865 -0.00967381529987039
0.5036623174536143 -0.010156657951233964
0.5041430077238764 -0.2597311290658497
0.5041706598893595 -0.5087666346763886
0.504224733045111 -0.7575555789909857
0.5043663268924117 -1.006002872072592
0.5046192043015401 -1.254044792701121
0.50501267958154 -1.5015519372733799
0.5056710814298354 -1.748198411247982
0.5068581817334167 -1.9932746497659157
0.5088804386978327 -2.235560191930324
0.5119946165370696 -2.473301220551667
0.5163763476825917 -2.704279445003499
0.5221520946206742 -2.925897062619315
0.5294474572712818 -3.135261308106167
0.5384158694830811 -3.3291909613767383
0.5492503283067953 -3.5042182627232004
0.5621704377284996 -3.656622839906944
0.577386678040472 -3.7825547042131284
0.5951448717587459 -3.8782471857299217
0.6158885322600139 -3.940128959269476
0.6399983176072666 -3.9650607446392296
0.6641081029545176 -3.940128959269338
0.6848517634557812 -3.878247185729645
0.7026099571740475 -3.78255470421273
0.7178261974860112 -3.6566228399064507
0.7307463069077059 -3.504218262722638
0.7415807657314105 -3.3291909613761277
0.7505491779432015 -3.1352613081055254
0.7578445405938016 -2.92589706261866
0.7636202875318765 -2.7042794450028524
0.7680020186773915 -2.473301220551048
0.7711161965166221 -2.2355601919297468
0.773138453481034 -1.9932746497653877
0.7743255537846123 -1.7481984112475115
0.7749839556329062 -1.5015519372729706
0.7753774309129057 -1.2540447927007785
0.7756303083220338 -1.0060028720723133
0.7757719021693346 -0.7575555789907731
0.7758259753250859 -0.50876663467624
0.775853627490569 -0.2597311290657657
0.7763343177608298 -0.010156657951218255
0.5658357086150636 -0.010521535095458954
0.5661659917144733 -0.259763699736957
0.56616253846248 -0.5087700671496893
0.566155594928592 -0.7575535533815693
0.5661990366194933 -1.0060126773297189
0.5663119555312912 -1.2540695641129125
0.5665056448798778 -1.5015949396825696
0.5668228351168979 -1.748278204146786
0.5673739346158541 -1.9934411420663893
0.568333210648408 -2.235878796008947
0.5698415822126924 -2.473823009794663
0.571996101531588 -2.705036280683817
0.574851006671375 -2.926912356263039
0.5784673157061326 -3.1365630316538335
0.5829298777026701 -3.3308147310527203
0.5883658090485266 -3.5062108283616498
0.5949670776157551 -3.6590396505853815
0.6029891092381365 -3.7854536472117513
0.6127293964009293 -3.8817148848179834
0.6247128891446135 -3.9443365036936275
0.6399983176072512 -3.970144832345807
0.6552837460698882 -3.9443365036934885
0.6672672388135704 -3.881714884817705
0.6770075259763585 -3.785453647211351
0.6850295575987345 -3.659039650584887
0.6916308261659583 -3.506210828361086
0.6970667575118106 -3.3308147310521083
0.7015293195083447 -3.13656303165319
0.7051456285430994 -2.926912356262382
0.7080005336828831 -2.705036280683169
0.7101550530017755 -2.473823009794043
0.7116634245660572 -2.235878796008368
0.7126227005986094 -1.993441142065861
0.7131738000975645 -1.748278204146315
0.7134909903345839 -1.5015949396821604
0.7136846796831704 -1.25406956411257
0.7137975985949683 -1.0060126773294404
0.7138410402858696 -0.7575535533813565
0.7138340967519815 -0.5087700671495407
0.713830643499988 -0.25976369973687297
0.7141609265993971 -0.010521535095442541
0.6279550081409754 -0.010794200390535169
0.6281793126287911 -0.25979612761207443
0.6281424798415919 -0.5087690210091413
0.6280752276387358 -0.7575437042714578
0.6280230505396864 -1.0060087394622723
0.6279963309844984 -1.2540746813684263
0.6279860760193211 -1.5016084627927073
0.6279824734484311 -1.7483022624094784
0.6279812452874406 -1.9934849325483077
0.627981185782442 -2.2359592518407965
0.6279813231874429 -2.473956221868306
0.6279800973531023 -2.705236015192968
0.6279717079310433 -2.927189319202842
0.6279532770764825 -3.1369290526083966
0.6279390042936879 -3.331288384109304
0.6279934959066025 -3.506824385679581
0.6282774595259502 -3.6598480979525587
0.6290972174819586 -3.7865363445982654
0.6308820798727849 -3.8831660350212034
0.6341101188083218 -3.946344166105049
0.6399983176072351 -3.973089587130864
0.645886516406149 -3.94634416610491
0.6491145553416853 -3.8831660350209245
0.6508994177325105 -3.7865363445978644
0.6517191756885182 -3.659848097952063
0.6520031393078666 -3.5068243856790176
0.6520576309207822 -3.3312883841086918
0.6520433581379886 -3.1369290526077527
0.6520249272834295 -2.927189319202186
0.6520165378613721 -2.7052360151923196
0.6520153120270327 -2.4739562218676854
0.6520154494320345 -2.235959251840218
0.6520153899270362 -1.9934849325477793
0.6520141617660462 -1.7483022624090074
0.6520105591951563 -1.501608462792298
0.6520003042299791 -1.2540746813680836
0.6519735846747912 -1.0060087394619937
0.6519214075757418 -0.7575437042712452
0.6518541553728857 -0.5087690210089926
0.6518173225856865 -0.25979612761199045
0.652041627073502 -0.010794200390518288
0.6900313356449517 -0.010999777791843905
0.6901823234438741 -0.259828777405533
0.690114752830652 -0.5087629043251113
0.6899887040973136 -0.7575261972882769
0.6898436330733335 -1.0059914619720078
0.6896794467155514 -1.2540599283349319
0.6894657911382168 -1.501592392407719
0.689141313066782 -1.7482774888512171
0.6885881104067283 -1.9934409819652492
0.687629086479183 -2.2358788094417377
0.6861213418460147 -2.473822951441253
0.6839629571809662 -2.705034094019825
0.6810905037902988 -2.9269059552273573
0.6774383030681994 -3.136553773217914
0.6729513096339557 -3.3308183496019605
0.667630011761038 -3.506275642267953
0.6615894470062901 -3.6592685695775735
0.6551238285603583 -3.7860172526319777
0.6487013534669787 -3.88280458737098
0.6429978906115551 -3.9462670444556798
0.639998317607219 -3.973993155457147
0.6369987446028823 -3.9462670444555408
0.631295281747459 -3.8828045873707016
0.6248728066540831 -3.7860172526315767
0.6184071882081565 -3.6592685695770792
0.6123666234534152 -3.50627564226739
0.6070453255805036 -3.330818349601349
0.6025583321462653 -3.136553773217271
0.598906131424172 -2.9269059552267023
0.5960336780335111 -2.7050340940191777
0.5938752933684682 -2.4738229514406327
0.5923675487353045 -2.2358788094411586
0.5914085248077618 -1.9934409819647207
0.5908553221477101 -1.7482774888507464
0.590530844076276 -1.5015923924073098
0.590317188498942 -1.254059928334589
0.5901530021411601 -1.0059914619717294
0.5900079311171802 -0.7575261972880641
0.5898818823838416 -0.5087629043249625
0.5898143117706197 -0.25982877740544913
0.589965299569542 -0.010999777791826763
0.7520766599315079 -0.011156771528092267
0.752178184216279 -0.25985984391597466
0.752083167742939 -0.5087521078532763
0.7519013203570974 -0.7575012032982195
0.7516667382740116 -1.005961453044636
0.7513687403914392 -1.2540257556402232
0.750955980276321 -1.501546710725027
0.7502908673494809 -1.7481968036460847
0.7491030148702421 -1.9932744070751123
0.747082092166549 -2.2355603933954393
0.7439679256402202 -2.4733007231753485
0.7395814705755497 -2.7042747055692313
0.7337901881400287 -2.9258840876616117
0.726465097413716 -3.1352432205787886
0.7174805619387327 -3.329199822746546
0.7067628784036523 -3.504351102175163
0.6943754148787014 -3.6570800861230857
0.6805880823154127 -3.783658437176413
0.6659446602808807 -3.880426205433113
0.6516132006725579 -3.944219267451194
0.6399983176072034 -3.973030021373762
0.6283834345418486 -3.9442192674510546
0.6140519749335278 -3.8804262054328356