# vtk DataFile Version 3.0
Some data
ASCII
DATASET UNSTRUCTURED_GRID
POINTS 861 float
0.0 0.0 0.0
0.4 0.0 0.0
0.8 0.0 0.0
1.2000000000000002 0.0 0.0
1.6 0.0 0.0
2.0 0.0 0.0
2.4000000000000004 0.0 0.0
2.8000000000000003 0.0 0.0
3.2 0.0 0.0
3.6 0.0 0.0
4.0 0.0 0.0
4.4 0.0 0.0
4.800000000000001 0.0 0.0
5.2 0.0 0.0
5.6000000000000005 0.0 0.0
6.0 0.0 0.0
6.4 0.0 0.0
6.800000000000001 0.0 0.0
7.2 0.0 0.0
7.6000000000000005 0.0 0.0
8.0 0.0 0.0
8.4 0.0 0.0
8.8 0.0 0.0
9.200000000000001 0.0 0.0
9.600000000000001 0.0 0.0
10.0 0.0 0.0
10.4 0.0 0.0
10.8 0.0 0.0
11.200000000000001 0.0 0.0
11.600000000000001 0.0 0.0
12.0 0.0 0.0
12.4 0.0 0.0
12.8 0.0 0.0
13.200000000000001 0.0 0.0
13.600000000000001 0.0 0.0
14.0 0.0 0.0
14.4 0.0 0.0
14.8 0.0 0.0
15.200000000000001 0.0 0.0
15.600000000000001 0.0 0.0
16.0 0.0 0.0
0.0 0.1 0.0
0.4 0.1 0.0
0.8 0.1 0.0
1.2000000000000002 0.1 0.0
1.6 0.1 0.0
2.0 0.1 0.0
2.4000000000000004 0.1 0.0
2.8000000000000003 0.1 0.0
3.2 0.1 0.0
3.6 0.1 0.0
4.0 0.1 0.0
4.4 0.1 0.0
4.800000000000001 0.1 0.0
5.2 0.1 0.0
5.6000000000000005 0.1 0.0
6.0 0.1 0.0
6.4 0.1 0.0
6.800000000000001 0.1 0.0
7.2 0.1 0.0
7.6000000000000005 0.1 0.0
8.0 0.1 0.0
8.4 0.1 0.0
8.8 0.1 0.0
9.200000000000001 0.1 0.0
9.600000000000001 0.1 0.0
10.0 0.1 0.0
10.4 0.1 0.0
10.8 0.1 0.0
11.200000000000001 0.1 0.0
11.600000000000001 0.1 0.0
12.0 0.1 0.0
12.4 0.1 0.0
12.8 0.1 0.0
13.200000000000001 0.1 0.0
13.600000000000001 0.1 0.0
14.0 0.1 0.0
14.4 0.1 0.0
14.8 0.1 0.0
15.200000000000001 0.1 0.0
15.600000000000001 0.1 0.0
16.0 0.1 0.0
0.0 0.2 0.0
0.4 0.2 0.0
0.8 0.2 0.0
1.2000000000000002 0.2 0.0
1.6 0.2 0.0
2.0 0.2 0.0
2.4000000000000004 0.2 0.0
2.8000000000000003 0.2 0.0
3.2 0.2 0.0
3.6 0.2 0.0
4.0 0.2 0.0
4.4 0.2 0.0
4.800000000000001 0.2 0.0
5.2 0.2 0.0
5.6000000000000005 0.2 0.0
6.0 0.2 0.0
6.4 0.2 0.0
6.800000000000001 0.2 0.0
7.2 0.2 0.0
7.6000000000000005 0.2 0.0
8.0 0.2 0.0
8.4 0.2 0.0
8.8 0.2 0.0
9.200000000000001 0.2 0.0
9.600000000000001 0.2 0.0
10.0 0.2 0.0
10.4 0.2 0.0
10.8 0.2 0.0
11.200000000000001 0.2 0.0
11.600000000000001 0.2 0.0
12.0 0.2 0.0
12.4 0.2 0.0
12.8 0.2 0.0
13.200000000000001 0.2 0.0
13.600000000000001 0.2 0.0
14.0 0.2 0.0
14.4 0.2 0.0
14.8 0.2 0.0
15.200000000000001 0.2 0.0
15.600000000000001 0.2 0.0
16.0 0.2 0.0
0.0 0.30000000000000004 0.0
0.4 0.30000000000000004 0.0
0.8 0.30000000000000004 0.0
1.2000000000000002 0.30000000000000004 0.0
1.6 0.30000000000000004 0.0
2.0 0.30000000000000004 0.0
2.4000000000000004 0.30000000000000004 0.0
2.8000000000000003 0.30000000000000004 0.0
3.2 0.30000000000000004 0.0
3.6 0.30000000000000004 0.0
4.0 0.30000000000000004 0.0
4.4 0.30000000000000004 0.0
4.800000000000001 0.30000000000000004 0.0
5.2 0.30000000000000004 0.0
5.6000000000000005 0.30000000000000004 0.0
6.0 0.30000000000000004 0.0
6.4 0.30000000000000004 0.0
6.800000000000001 0.30000000000000004 0.0
7.2 0.30000000000000004 0.0
7.6000000000000005 0.30000000000000004 0.0
8.0 0.30000000000000004 0.0
8.4 0.30000000000000004 0.0
8.8 0.30000000000000004 0.0
9.200000000000001 0.30000000000000004 0.0
9.600000000000001 0.30000000000000004 0.0
10.0 0.30000000000000004 0.0
10.4 0.30000000000000004 0.0
10.8 0.30000000000000004 0.0
11.200000000000001 0.30000000000000004 0.0
11.600000000000001 0.30000000000000004 0.0
12.0 0.30000000000000004 0.0
12.4 0.30000000000000004 0.0
12.8 0.30000000000000004 0.0
13.200000000000001 0.30000000000000004 0.0
13.600000000000001 0.30000000000000004 0.0
14.0 0.30000000000000004 0.0
14.4 0.30000000000000004 0.0
14.8 0.30000000000000004 0.0
15.200000000000001 0.30000000000000004 0.0
15.600000000000001 0.30000000000000004 0.0
16.0 0.30000000000000004 0.0
0.0 0.4 0.0
0.4 0.4 0.0
0.8 0.4 0.0
1.2000000000000002 0.4 0.0
1.6 0.4 0.0
2.0 0.4 0.0
2.4000000000000004 0.4 0.0
2.8000000000000003 0.4 0.0
3.2 0.4 0.0
3.6 0.4 0.0
4.0 0.4 0.0
4.4 0.4 0.0
4.800000000000001 0.4 0.0
5.2 0.4 0.0
5.6000000000000005 0.4 0.0
6.0 0.4 0.0
6.4 0.4 0.0
6.800000000000001 0.4 0.0
7.2 0.4 0.0
7.6000000000000005 0.4 0.0
8.0 0.4 0.0
8.4 0.4 0.0
8.8 0.4 0.0
9.200000000000001 0.4 0.0
9.600000000000001 0.4 0.0
10.0 0.4 0.0
10.4 0.4 0.0
10.8 0.4 0.0
11.200000000000001 0.4 0.0
11.600000000000001 0.4 0.0
12.0 0.4 0.0
12.4 0.4 0.0
12.8 0.4 0.0
13.200000000000001 0.4 0.0
13.600000000000001 0.4 0.0
14.0 0.4 0.0
14.4 0.4 0.0
14.8 0.4 0.0
15.200000000000001 0.4 0.0
15.600000000000001 0.4 0.0
16.0 0.4 0.0
0.0 0.5 0.0
0.4 0.5 0.0
0.8 0.5 0.0
1.2000000000000002 0.5 0.0
1.6 0.5 0.0
2.0 0.5 0.0
2.4000000000000004 0.5 0.0
2.8000000000000003 0.5 0.0
3.2 0.5 0.0
3.6 0.5 0.0
4.0 0.5 0.0
4.4 0.5 0.0
4.800000000000001 0.5 0.0
5.2 0.5 0.0
5.6000000000000005 0.5 0.0
6.0 0.5 0.0
6.4 0.5 0.0
6.800000000000001 0.5 0.0
7.2 0.5 0.0
7.6000000000000005 0.5 0.0
8.0 0.5 0.0
8.4 0.5 0.0
8.8 0.5 0.0
9.200000000000001 0.5 0.0
9.600000000000001 0.5 0.0
10.0 0.5 0.0
10.4 0.5 0.0
10.8 0.5 0.0
11.200000000000001 0.5 0.0
11.600000000000001 0.5 0.0
12.0 0.5 0.0
12.4 0.5 0.0
12.8 0.5 0.0
13.200000000000001 0.5 0.0
13.600000000000001 0.5 0.0
14.0 0.5 0.0
14.4 0.5 0.0
14.8 0.5 0.0
15.200000000000001 0.5 0.0
15.600000000000001 0.5 0.0
16.0 0.5 0.0
0.0 0.6000000000000001 0.0
0.4 0.6000000000000001 0.0
0.8 0.6000000000000001 0.0
1.2000000000000002 0.6000000000000001 0.0
1.6 0.6000000000000001 0.0
2.0 0.6000000000000001 0.0
2.4000000000000004 0.6000000000000001 0.0
2.8000000000000003 0.6000000000000001 0.0
3.2 0.6000000000000001 0.0
3.6 0.6000000000000001 0.0
4.0 0.6000000000000001 0.0
4.4 0.6000000000000001 0.0
4.800000000000001 0.6000000000000001 0.0
5.2 0.6000000000000001 0.0
5.6000000000000005 0.6000000000000001 0.0
6.0 0.6000000000000001 0.0
6.4 0.6000000000000001 0.0
6.800000000000001 0.6000000000000001 0.0
7.2 0.6000000000000001 0.0
7.6000000000000005 0.6000000000000001 0.0
8.0 0.6000000000000001 0.0
8.4 0.6000000000000001 0.0
8.8 0.6000000000000001 0.0
9.200000000000001 0.6000000000000001 0.0
9.600000000000001 0.6000000000000001 0.0
10.0 0.6000000000000001 0.0
10.4 0.6000000000000001 0.0
10.8 0.6000000000000001 0.0
11.200000000000001 0.6000000000000001 0.0
11.600000000000001 0.6000000000000001 0.0
12.0 0.6000000000000001 0.0
12.4 0.6000000000000001 0.0
12.8 0.6000000000000001 0.0
13.200000000000001 0.6000000000000001 0.0
13.600000000000001 0.6000000000000001 0.0
14.0 0.6000000000000001 0.0
14.4 0.6000000000000001 0.0
14.8 0.6000000000000001 0.0
15.200000000000001 0.6000000000000001 0.0
15.600000000000001 0.6000000000000001 0.0
16.0 0.6000000000000001 0.0
0.0 0.7000000000000001 0.0
0.4 0.7000000000000001 0.0
0.8 0.7000000000000001 0.0
1.2000000000000002 0.7000000000000001 0.0
1.6 0.7000000000000001 0.0
2.0 0.7000000000000001 0.0
2.4000000000000004 0.7000000000000001 0.0
2.8000000000000003 0.7000000000000001 0.0
3.2 0.7000000000000001 0.0
3.6 0.7000000000000001 0.0
4.0 0.7000000000000001 0.0
4.4 0.7000000000000001 0.0
4.800000000000001 0.7000000000000001 0.0
5.2 0.7000000000000001 0.0
5.6000000000000005 0.7000000000000001 0.0
6.0 0.7000000000000001 0.0
6.4 0.7000000000000001 0.0
6.800000000000001 0.7000000000000001 0.0
7.2 0.7000000000000001 0.0
7.6000000000000005 0.7000000000000001 0.0
8.0 0.7000000000000001 0.0
8.4 0.7000000000000001 0.0
8.8 0.7000000000000001 0.0
9.200000000000001 0.7000000000000001 0.0
9.600000000000001 0.7000000000000001 0.0
10.0 0.7000000000000001 0.0
10.4 0.7000000000000001 0.0
10.8 0.7000000000000001 0.0
11.200000000000001 0.7000000000000001 0.0
11.600000000000001 0.7000000000000001 0.0
12.0 0.7000000000000001 0.0
12.4 0.7000000000000001 0.0
12.8 0.7000000000000001 0.0
13.200000000000001 0.7000000000000001 0.0
13.600000000000001 0.7000000000000001 0.0
14.0 0.7000000000000001 0.0
14.4 0.7000000000000001 0.0
14.8 0.7000000000000001 0.0
15.200000000000001 0.7000000000000001 0.0
15.600000000000001 0.7000000000000001 0.0
16.0 0.7000000000000001 0.0
0.0 0.8 0.0
0.4 0.8 0.0
0.8 0.8 0.0
1.2000000000000002 0.8 0.0
1.6 0.8 0.0
2.0 0.8 0.0
2.4000000000000004 0.8 0.0
2.8000000000000003 0.8 0.0
3.2 0.8 0.0
3.6 0.8 0.0
4.0 0.8 0.0
4.4 0.8 0.0
4.800000000000001 0.8 0.0
5.2 0.8 0.0
5.6000000000000005 0.8 0.0
6.0 0.8 0.0
6.4 0.8 0.0
6.800000000000001 0.8 0.0
7.2 0.8 0.0
7.6000000000000005 0.8 0.0
8.0 0.8 0.0
8.4 0.8 0.0
8.8 0.8 0.0
9.200000000000001 0.8 0.0
9.600000000000001 0.8 0.0
10.0 0.8 0.0
10.4 0.8 0.0
10.8 0.8 0.0
11.200000000000001 0.8 0.0
11.600000000000001 0.8 0.0
12.0 0.8 0.0
12.4 0.8 0.0
12.8 0.8 0.0
13.200000000000001 0.8 0.0
13.600000000000001 0.8 0.0
14.0 0.8 0.0
14.4 0.8 0.0
14.8 0.8 0.0
15.200000000000001 0.8 0.0
15.600000000000001 0.8 0.0
16.0 0.8 0.0
0.0 0.9 0.0
0.4 0.9 0.0
0.8 0.9 0.0
1.2000000000000002 0.9 0.0
1.6 0.9 0.0
2.0 0.9 0.0
2.4000000000000004 0.9 0.0
2.8000000000000003 0.9 0.0
3.2 0.9 0.0
3.6 0.9 0.0
4.0 0.9 0.0
4.4 0.9 0.0
4.800000000000001 0.9 0.0
5.2 0.9 0.0
5.6000000000000005 0.9 0.0
6.0 0.9 0.0
6.4 0.9 0.0
6.800000000000001 0.9 0.0
7.2 0.9 0.0
7.6000000000000005 0.9 0.0
8.0 0.9 0.0
8.4 0.9 0.0
8.8 0.9 0.0
9.200000000000001 0.9 0.0
9.600000000000001 0.9 0.0
10.0 0.9 0.0
10.4 0.9 0.0
10.8 0.9 0.0
11.200000000000001 0.9 0.0
11.600000000000001 0.9 0.0
12.0 0.9 0.0
12.4 0.9 0.0
12.8 0.9 0.0
13.200000000000001 0.9 0.0
13.600000000000001 0.9 0.0
14.0 0.9 0.0
14.4 0.9 0.0
14.8 0.9 0.0
15.200000000000001 0.9 0.0
15.600000000000001 0.9 0.0
16.0 0.9 0.0
0.0 1.0 0.0
0.4 1.0 0.0
0.8 1.0 0.0
1.2000000000000002 1.0 0.0
1.6 1.0 0.0
2.0 1.0 0.0
2.4000000000000004 1.0 0.0
2.8000000000000003 1.0 0.0
3.2 1.0 0.0
3.6 1.0 0.0
4.0 1.0 0.0
4.4 1.0 0.0
4.800000000000001 1.0 0.0
5.2 1.0 0.0
5.6000000000000005 1.0 0.0
6.0 1.0 0.0
6.4 1.0 0.0
6.800000000000001 1.0 0.0
7.2 1.0 0.0
7.6000000000000005 1.0 0.0
8.0 1.0 0.0
8.4 1.0 0.0
8.8 1.0 0.0
9.200000000000001 1.0 0.0
9.600000000000001 1.0 0.0
10.0 1.0 0.0
10.4 1.0 0.0
10.8 1.0 0.0
11.200000000000001 1.0 0.0
11.600000000000001 1.0 0.0
12.0 1.0 0.0
12.4 1.0 0.0
12.8 1.0 0.0
13.200000000000001 1.0 0.0
13.600000000000001 1.0 0.0
14.0 1.0 0.0
14.4 1.0 0.0
14.8 1.0 0.0
15.200000000000001 1.0 0.0
15.600000000000001 1.0 0.0
16.0 1.0 0.0
0.0 1.1 0.0
0.4 1.1 0.0
0.8 1.1 0.0
1.2000000000000002 1.1 0.0
1.6 1.1 0.0
[...]
POINT_DATA 861
SCALARS Disp float 2
LOOKUP_TABLE default
0.0 0.0
0.006288369507401859 -0.3014179126808565
0.0077435137489147475 -0.5929443192703946
0.008555979457532012 -0.8832867938126191
0.009643613393572514 -1.1732184747181884
0.011502459371573105 -1.4622487707288567
0.014889309260302614 -1.7497169041615213
0.020747162586443303 -2.034788153033565
0.03019022415535695 -2.3164116080815327
0.04443033898729123 -2.5932023771693404
0.06466569006282777 -2.8632827006936026
0.09200294412959785 -3.124205122886703
0.12742187169516925 -3.3730060406069597
0.17176421396297414 -3.606344906924203
0.22572364114146123 -3.8205993906385136
0.2897737818976996 -4.011948452775608
0.36404616362549885 -4.176484573362993
0.448191167920578 -4.3103891565923655
0.5412666522002056 -4.410197165307772
0.6417014673135043 -4.473052316462388
0.7470175071022682 -4.497052585062253
0.8523335468910271 -4.4730523164622475
0.9527683620043053 -4.410197165307487
1.0458438462838964 -4.310389156591949
1.129988850578929 -4.176484573362472
1.2042612323066777 -4.011948452775014
1.268311373062864 -3.82059939063786
1.3222708002412993 -3.6063449069235114
1.366613142509053 -3.37300604060625
1.4020320700745748 -3.1242051228859995
1.4293693241413015 -2.8632827006929245
1.449604675216802 -2.5932023771687023
1.4638447900487077 -2.3164116080809434
1.4732878516176007 -2.034788153033034
1.479145704943727 -1.7497169041610536
1.4825325548324482 -1.4622487707284615
1.4843914008104446 -1.1732184747178651
1.4854790347464841 -0.8832867938123721
1.4862915004551012 -0.5929443192702225
1.4877466446966126 -0.3014179126807624
1.4940350142040109 0.0
0.07518174450706325 -0.002585084357074846
0.07962925483022243 -0.30173096608050876
0.0803778763503135 -0.5930085925318239
0.08109355156918568 -0.8833809439914805
0.08203921990254169 -1.173385842900797
0.08360903215666346 -1.4626380904471867
0.08651461208814983 -1.7505400158441187
0.09164594889353625 -2.0362989610656475
0.10004761934104589 -2.3188939787236627
0.1128241721114025 -2.5969450231066222
0.13104414634935044 -2.8685576174890293
0.15568056234963315 -3.131257062025129
0.18760110978580646 -3.3820506111674757
0.22756962125959362 -3.6175667921376844
0.2762181600003502 -3.83414338039911
0.33398883579444133 -4.027896168358659
0.40102721368753824 -4.194822115803095
0.47705874103474205 -4.330975537244394
0.5612734907936451 -4.432738791021785
0.652153878091486 -4.4970725856097635
0.7470175071022511 -4.5216880629067004
0.8418811361130109 -4.49707258560962
0.9327615234108326 -4.432738791021491
1.0169762731697034 -4.330975537243969
1.0930078005168669 -4.194822115802563
1.1600461784099187 -4.027896168358051
1.217816854203963 -3.834143380398445
1.2664653929446725 -3.6175667921369805
1.3064339044184137 -3.382050611166755
1.3383544518545427 -3.1312570620244147
1.362990867854786 -2.868557617488342
1.3812108420927014 -2.596945023105977
1.3939873948630326 -2.3188939787230676
1.4023890653105233 -2.0362989610651128
1.407520402115897 -1.7505400158436486
1.4104259820473757 -1.4626380904467904
1.4119957943014942 -1.1733858429004735
1.4129414626348495 -0.8833809439912336
1.4136571378537215 -0.5930085925316517
1.4144057593738122 -0.3017309660804143
1.4188532696969658 -0.0025850843570723275
0.14932003796214016 -0.004650479341914386
0.1526065596656239 -0.3018886002030756
0.15303180227139485 -0.5930394719543797
0.15361377492927733 -0.8834632576573552
0.1544289859954004 -1.1735172598680332
0.15573887163290603 -1.4629462231026433
0.15817626062368123 -1.7512239033831676
0.16258405226295317 -2.037599038992594
0.16992507792715889 -2.3210729353551596
0.18119977627058745 -2.600262736963994
0.197353662686338 -2.8732538810998176
0.21923663107625965 -3.1375460858879025
0.24760595988362075 -3.39012359918474
0.28313668624320276 -3.627591126101918
0.32640394759068553 -3.8462519787415714
0.37782208560599706 -4.042168587887581
0.437563514699401 -4.2112571080447125
0.5054438771552967 -4.349459220324509
0.5807652824016015 -4.453007295301288
0.6620705452419755 -4.518635079855537
0.7470175071022342 -4.543798811856001
0.8319644689624877 -4.51863507985539
0.9132697318028444 -4.453007295300988
0.9885911370491208 -4.349459220324075
1.056471499504981 -4.21125710804417
1.1162129285983455 -4.042168587886962
1.1676310666136152 -3.8462519787408955
1.2108983279610557 -3.627591126101203
1.2464290543205971 -3.390123599184008
1.274798383127919 -3.1375460858871786
1.2966813515178055 -2.8732538810991217
1.3128352379335273 -2.6002627369633418
1.3241099362769329 -2.3210729353545596
1.3314509619411214 -2.037599038992056
1.3358587535803823 -1.7512239033826955
1.338296142571151 -1.4629462231022456
1.3396060282086542 -1.1735172598677095
1.3404212392747767 -0.8834632576571083
1.3410032119326594 -0.5930394719542074
1.3414284545384303 -0.3018886002029808
1.3447149762419082 -0.00465047934190901
0.22290445771895734 -0.006316581315547119
0.22540495988738046 -0.30199607750133867
0.2256629657813054 -0.5930560746498953
0.22611736752566627 -0.8835286940246456
0.22680836413974154 -1.1736219053720383
0.22788896773768902 -1.4631823158798392
0.22988527464007955 -1.7517732684910758
0.23357874335861428 -2.0386891276041115
0.23985237304682588 -2.322944009444453
0.24960325709242795 -2.603147534011868
0.2636591751365298 -2.877361632207996
0.2827513296905772 -3.143062263058242
0.30753071810675486 -3.3972144187724784
0.33858267471542686 -3.636404771891932
0.3764160707294148 -3.856910391669217
0.421424610685129 -4.054751028737187
0.4738117569185223 -4.225777084862476
0.5334805135543594 -4.365830591946473
0.5998568874136384 -4.470992763834788
0.6716943629170047 -4.53779754598544
0.7470175071022179 -4.563514737029292
0.8223406512874262 -4.53779754598529
0.8941781267907768 -4.470992763834483
0.9605545006500309 -4.36583059194603
1.0202232572858372 -4.225777084861925
1.072610403519196 -4.054751028736559
1.1176189434748731 -3.856910391668531
1.155452339488824 -3.636404771891207
1.1865042960974606 -3.3972144187717377
1.2112836845136041 -3.1430622630575096
1.230375839067621 -2.877361632207292
1.2444317571116976 -2.60314753401121
1.254182641157279 -2.3229440094438485
1.2604562708454758 -2.0386891276035697
1.264149739564001 -1.7517732684906022
1.2661460464663863 -1.463182315879441
1.2672266500643319 -1.173621905371714
1.2679176466784068 -0.8835286940243987
1.2683720484227676 -0.5930560746497231
1.2686300543166926 -0.30199607750124347
1.2711305564851105 -0.006316581315539098
0.2961742827540698 -0.007667369484207927
0.29808314549012843 -0.30207892696274874
0.298250908800094 -0.5930655219743959
0.2985986882029927 -0.8835790682418829
0.29917332502348293 -1.173705167122962
0.3000519284486092 -1.4633593793192863
0.30164938176452066 -1.752197058754924
0.30464603788048666 -2.039572357831798
0.3098595584945126 -2.32450691392928
0.31808046564450626 -2.6055958542968347
0.3300236362230676 -2.880875775547539
0.3463058338144739 -3.1477993861840594
0.3674712747899921 -3.403316340498325
0.3940176655919737 -3.644000332954017
0.4263915409576847 -3.8661091927969546
0.46495294514818897 -4.065632014411513
0.5099305623067366 -4.238368267996245
0.561318109011303 -4.380074091046646
0.6187119888278483 -4.486697871433634
0.6811437147836181 -4.554603737271822
0.7470175071022017 -4.58090557884703
0.8128912994207808 -4.554603737271669
0.8753230253765367 -4.486697871433324
0.9327169051930599 -4.380074091046197
0.9841044518976001 -4.2383682679956864
1.0290820690561178 -4.065632014410877
1.06764347324659 -3.8661091927962596
1.1000173486122695 -3.6440003329532846
1.1265637394142207 -3.4033163404975766
1.1477291803897098 -3.1477993861833196
1.1640113779810903 -2.8808757755468295
1.1759545485596297 -2.6055958542961712
1.1841754557096056 -2.324506913928672
1.1893889763236187 -2.0395723578312532
1.192385632439577 -1.7521970587544486
1.1939830857554843 -1.4633593793188875
1.1948616891806092 -1.1737051671226377
1.1954363260010994 -0.883579068241636
1.1957841054039982 -0.5930655219742239
1.1959518687139636 -0.3020789269626532
1.1978607314500176 -0.007667369484197597
0.36923705220360725 -0.00875617215607243
0.3706779180687543 -0.302145718712813
0.37079361810650274 -0.5930725006977106
0.3710541749337541 -0.8836164485972899
0.3715182215294706 -1.173771426511282
0.3722216648122456 -1.4634897421730608
0.3734622561893787 -1.7525097249321906
0.3758082669706433 -2.04025560227352
0.37997665752957416 -2.325764910599387
0.3866769934304771 -2.607608681801949
0.3965094898651173 -2.8837955400308823
0.40997901745808113 -3.1517559150319627
0.4275258679411852 -3.4084270056896075
0.4495590517269018 -3.650374810646336
0.47646026582159406 -3.873844998167324
0.5085598497457453 -4.0748047255411075
0.5460910873255164 -4.249017248161871
0.5891310562537655 -4.392174586016642
0.6374848300542192 -4.500120534683637
0.6905129397068495 -4.569076327131029
0.7470175071021853 -4.596012783712145
0.8035220744975177 -4.5690763271308725
0.8565501841501358 -4.500120534683322
0.9049039579505704 -4.392174586016187
0.9479439268787976 -4.249017248161305
0.9854751644585432 -4.0748047255404645
1.0175747483826676 -3.8738449981666223
1.0444759624773337 -3.6503748106455958
1.066509146263025 -3.408427005688852
1.0840559967461052 -3.151755915031217
1.0975255243390474 -2.883795540030167
1.1073580207736688 -2.607608681801281
1.1140583566745574 -2.325764910598775
1.118226747233478 -2.0402556022729734
1.1205727580147362 -1.752509724931714
1.1218133493918663 -1.4634897421726618
1.1225167926746404 -1.1737714265109578
1.1229808392703569 -0.883616448597043
1.123241396097608 -0.5930725006975386
1.1233570961353565 -0.3021457187127171
1.1247979620005 -0.008756172156060147
0.4421484212237438 -0.00962372009643498
0.4432142205241317 -0.3021999320652824
0.443296700631983 -0.5930793557030054
0.4434836076837967 -0.8836424097470341
0.44384033391190064 -1.1738235056868833
0.4443896252332202 -1.463584454611358
0.44531535098601666 -1.7527289690050647
0.44706573738034294 -2.040754432773543
0.45023674409057535 -2.3267255399545963
0.4554390434498172 -2.60919124778135
0.46317970373851725 -2.8861249390465
0.4738516247595522 -3.1549349944865472
0.4877923898417161 -3.4125491026671693
0.5053233933185101 -3.655530385007295
0.5267615319703975 -3.880118774337627
0.5523983510879322 -4.082267716507254
0.5824664337219346 -4.257715731117847
0.6171097916983602 -4.402116604616432
0.6563409229100843 -4.511247967896618
0.699894753398662 -4.581217177047069
0.7470175071021691 -4.6088547159148625
0.7941402608056729 -4.58121717704691
0.8376940912942403 -4.511247967896299
0.8769252225059485 -4.402116604615972
0.9115685804823559 -4.257715731117276
0.9416366631163379 -4.082267716506604
0.967273482233851 -3.880118774336919
0.9887116208857171 -3.6555303850065486
1.0062426243624918 -3.4125491026664085
1.0201833894446364 -3.1549349944857963
1.0308553104656544 -2.88612493904578
1.0385959707543393 -2.6091912477806787
1.04379827011357 -2.3267255399539817
1.0469692768237944 -2.040754432772995
1.048719663218116 -1.7527289690045875
1.0496453889709103 -1.4635844546109589
1.0501946802922293 -1.1738235056865591
1.050551406520333 -0.8836424097467871
1.0507383135721469 -0.5930793557028334
1.050820793679998 -0.30219993206518636
1.0518865929803831 -0.009623720096421033
0.5149450887495347 -0.010302966503157306
0.515710581494068 -0.3022441693288002
0.5157682592681452 -0.5930865733405614
0.5158890987078734 -0.8836581984034043
0.5161400943065428 -1.1738622058279968
0.5165463545209167 -1.4636524361728243
0.5172027896004474 -1.7528729256216447
0.5184162092642401 -2.041090289936255
0.5206573411982032 -2.327405441080861
0.5244155990783421 -2.6103541028703763
0.5300992799910728 -2.8878727276054774
0.5380042833989052 -3.1573448609110972
0.5483711839087791 -3.415690877476882
0.5614313286851448 -3.65947472254029
0.577431406823275 -3.884937101677683
0.5966258008992157 -4.088025188225921
0.6192398610680061 -4.264461982857464
0.6454540550240323 -4.409886407944835
0.6754612252227766 -4.520055754007574
0.7093932174757799 -4.591005451800313
0.747017507102152 -4.6194266166803475
0.7846417967285221 -4.591005451800153
0.8185737889815172 -4.520055754007252
0.8485809591802496 -4.409886407944372
0.8747951531362613 -4.264461982856889
0.897409213305036 -4.088025188225267
0.9166036073809604 -3.8849371016769707
0.9326036855190746 -3.65947472253954
0.9456638302954262 -3.4156908774761168
0.956030730805286 -3.1573448609103427
0.9639357342131059 -2.8878727276047544
0.9696194151258253 -2.6103541028697017
0.9733776730059558 -2.327405441080245
0.9756188049399133 -2.0410902899357057
0.9768322246037028 -1.752872925621167
0.9774886596832324 -1.4636524361724248
0.9778949198976059 -1.1738622058276726
0.9781459154962753 -0.8836581984031573
0.9782667549360035 -0.5930865733403894
0.9783244327100805 -0.302244169328704
0.9790899254546117 -0.010302966503142007
0.5876499800573498 -0.01082458630224186
0.5881839335820624 -0.3022808119430471
0.5882157698729412 -0.5930933121047391
0.5882741381458213 -0.8836647851992773
0.5884213856966191 -1.1738870171030782
0.5886857619796098 -1.4636991121476557
0.589108336974391 -1.7529609806496411
0.5898553031565813 -2.0412898712515317
0.5912472915096066 -2.3278306315318815
0.5936424411770873 -2.6111175139565472
0.5973338188147019 -2.889054300633183
0.6025241803046226 -3.1589999239215687
0.609365355610702 -3.417866930559151
0.6180049033037462 -3.6622222688236525
0.6286143892695921 -3.888312503913145
0.6413997945958317 -4.092087563221925
0.6565860663960364 -4.269263779294027
0.6743845046471648 -4.41547658750553
0.6950679897323215 -4.526509468840696
0.719140063229762 -4.598394230322493
0.7470175071021347 -4.6276975945870396
0.7748949509745063 -4.598394230322332
0.7989670244719411 -4.526509468840373
0.8196505095570893 -4.415476587505064
0.8374489478082071 -4.269263779293449
0.8526352196084012 -4.092087563221267
0.86542062493463 -3.8883125039124296
0.8760301109004655 -3.6622222688228994
0.8846696585935012 -3.4178669305583833
0.8915108338995718 -3.158999923920811
0.8967011953894839 -2.889054300632458
0.9003925730270916 -2.6111175139558704
0.9027877226945671 -2.3278306315312642
0.9041797110475889 -2.0412898712509815
0.9049266772297775 -1.752960980649163
0.9053492522245581 -1.463699112147256
0.9056136285075487 -1.1738870171027542
0.9057608760583463 -0.8836647851990302
0.9058192443312263 -0.5930933121045672
0.905851080622105 -0.3022808119429509
0.9063850341468161 -0.010824586302225481
0.6602800229635948 -0.011218878975647634
0.6606452237581423 -0.30231279089673746
0.660646279468186 -0.5930977058797671
0.660642828648615 -0.8836629040889654
0.6606891082982541 -1.1738975017546271
0.660807773335943 -1.4637257145704181
0.6610146350975146 -1.7530089579086745
0.6613662850568096 -2.0413863181633927
0.6620074903670115 -2.328039409044113
0.6631443205279174 -2.6115156267144033
0.6649372184566775 -2.889698017687158
0.6674924078067879 -3.159925001593942
0.6708751431650544 -3.419100979899453
0.6751584410173463 -3.663797124920742
0.6804412433718503 -3.890267551451075
0.6868676988427235 -4.094472830994828
0.6946493620569367 -4.272137211389842
0.7040598494741687 -4.418898804037669
0.7154167778977428 -4.530579150920503
0.7293366457191728 -4.6033050309285715
0.7470175071021168 -4.633599816836968
0.7646983684850601 -4.60330503092841
0.7786182363064879 -4.530579150920178
0.7899751647300565 -4.4188988040372
0.7993856521472822 -4.272137211389262
0.8071673153614907 -4.094472830994168
0.8135937708323588 -3.8902675514503575
0.8188765731868581 -3.6637971249199874
0.8231598710391475 -3.419100979898684
0.8265426063974101 -3.159925001593183
0.8290977957475165 -2.8896980176864315
0.8308906936762734 -2.611515626713725
0.8320275238371774 -2.328039409043495
0.8326687291473779 -2.0413863181628424
0.8330203791066721 -1.7530089579081967
0.8332272408682436 -1.4637257145700187
0.8333459059059324 -1.1738975017543032
0.8333921855555716 -0.8836629040887183
0.8333887347360003 -0.593097705879595
0.8333897904460439 -0.30231279089664126
0.8337549912405905 -0.011218878975630507
0.7328534177300603 -0.011512343441268072
0.733099038105246 -0.3023434646357986
0.733065008725115 -0.5930976531231632
0.732999894918831 -0.8836529897555105
0.7329476784689699 -1.1738936857637896
0.7329206526149628 -1.4637314859165182
0.7329098772507202 -1.7530239077586867
0.7329056647806911 -2.041414053056909
0.7329038819862361 -2.328092620623807
0.7329036076056399 -2.611615508789671
0.7329036281379603 -2.88986462289174
0.7329013128943602 -3.1601747247467404
0.7328899689158872 -3.419445353118678
0.7328684872459331 -3.6642497718833993
0.7328601514895983 -3.890850299056069
0.7329493048092122 -4.095223147814472
0.7333280901975161 -4.273117026065091
0.7343433616765034 -4.420194717385869
0.7364621875427075 -4.532293438088372
0.740207821430146 -4.605657937639641
0.7470175071020981 -4.637015598599644
0.7538271927740509 -4.605657937639481
0.7575728266614887 -4.532293438088046
0.759691652527691 -4.4201947173854
0.760706924006678 -4.273117026064511
0.7610857093949831 -4.095223147813812
0.7611748627145981 -3.89085029905535
0.7611665269582643 -3.6642497718826443
0.7611450452883127 -3.419445353117909
0.7611337013098414 -3.160174724745981
0.7611313860662426 -2.8898646228910136
0.7611314065985639 -2.611615508788993
0.7611311322179684 -2.3280926206231887
0.7611293494235138 -2.0414140530563585
0.7611251369534849 -1.7530239077582088
0.7611143615892425 -1.4637314859161188
0.7610873357352353 -1.1738936857634652
0.7610351192853744 -0.8836529897552634
0.7609700054790902 -0.5930976531229911
0.760935976098959 -0.30234346463570244
0.7611815964741443 -0.011512343441250404
0.8053816873253424 -0.011731237291845177
0.8055441469029934 -0.30237428725994564
0.8054766078527024 -0.5930921048573377
0.8053506805631099 -0.8836352120620936
0.8052026004242041 -1.173875923241942
0.8050321000069862 -1.4637161284843805
0.8048040952661493 -1.7530064165462598
0.8044436486756876 -2.0413854037804855
0.8037995227714285 -2.3280391153933686
0.8026627692976155 -2.611515604741485
0.8008700295232025 -2.8896976857299856
0.7983085392211327 -3.1599218311889716
0.7949024965434833 -3.419092844434494
0.7905782081149149 -3.663787612944477
0.7852846035874161 -3.890278875367967
0.7790438612209452 -4.094565408909059
0.7720114139100377 -4.272431504894365
0.764536058897247 -4.419585367954883
0.7571396774457939 -4.531866939337881
0.7505756148397447 -4.605567922208957
0.7470175071020789 -4.63803006153403
0.7434593993644126 -4.605567922208794
0.7368953367583642 -4.531866939337555
0.729498955306915 -4.419585367954414
0.722023600294131 -4.272431504893785
0.7149911529832313 -4.0945654089084
0.7087504106167671 -3.8902788753672493
0.7034568060892752 -3.663787612943723
0.6991325176607143 -3.4190928444337256
0.6957264749830723 -3.1599218311882127
0.6931649846810092 -2.889697685729259
0.6913722449066015 -2.611515604740808
0.6902354914327916 -2.3280391153927504
0.6895913655285348 -2.041385403779935
0.6892309189380742 -1.753006416545782
0.6890029141972378 -1.4637161284839808
0.6888324137800199 -1.1738759232416176
0.6886843336411144 -0.8836352120618465
0.6885584063515219 -0.5930921048571656
0.6884908673012308 -0.30237428725984955
0.6886533268788816 -0.011731237291827233
0.8778753384195955 -0.011897143229025395
0.8779822481755216 -0.3024039219965935
0.8778849149107859 -0.593081332160047
0.8777007712763949 -0.8836096944988245
0.8774602362571027 -1.1738448168120483
0.8771499022629132 -1.4636800675817339
0.8767061474657485 -1.7529555559975785
0.8759514332606608 -2.04128779400265
0.8745585853984829 -2.3278301823375847
0.8721647213084488 -2.6111176101761613
0.8684726947552592 -2.889053185923117
0.8632753071155587 -3.1589932034770944
0.8564139787129728 -3.4178507506003495
0.8477419608275656 -3.6622043474533723
0.8371330885410451 -3.888337993228432
0.8245384164118028 -4.092277368374978
0.8100711014914844 -4.2698516890470115
0.7940661766664888 -4.416823073449606
0.7771477961732529 -4.529091582119592
0.7605906039383011 -4.60315561733034
0.7470175071020606 -4.6368226781108035
0.7334444102658197 -4.603155617330176
0.716887218030871 -4.529091582119267
0.699968837537643 -4.416823073449141
0.6839639127126591 -4.269851689046434