# vtk DataFile Version 3.0
Some data
ASCII
DATASET UNSTRUCTURED_GRID
POINTS 861 float
0.0 0.0 0.0
0.4 0.0 0.0
0.8 0.0 0.0
1.2000000000000002 0.0 0.0
1.6 0.0 0.0
2.0 0.0 0.0
2.4000000000000004 0.0 0.0
2.8000000000000003 0.0 0.0
3.2 0.0 0.0
3.6 0.0 0.0
4.0 0.0 0.0
4.4 0.0 0.0
4.800000000000001 0.0 0.0
5.2 0.0 0.0
5.6000000000000005 0.0 0.0
6.0 0.0 0.0
6.4 0.0 0.0
6.800000000000001 0.0 0.0
7.2 0.0 0.0
7.6000000000000005 0.0 0.0
8.0 0.0 0.0
8.4 0.0 0.0
8.8 0.0 0.0
9.200000000000001 0.0 0.0
9.600000000000001 0.0 0.0
10.0 0.0 0.0
10.4 0.0 0.0
10.8 0.0 0.0
11.200000000000001 0.0 0.0
11.600000000000001 0.0 0.0
12.0 0.0 0.0
12.4 0.0 0.0
12.8 0.0 0.0
13.200000000000001 0.0 0.0
13.600000000000001 0.0 0.0
14.0 0.0 0.0
14.4 0.0 0.0
14.8 0.0 0.0
15.200000000000001 0.0 0.0
15.600000000000001 0.0 0.0
16.0 0.0 0.0
0.0 0.1 0.0
0.4 0.1 0.0
0.8 0.1 0.0
1.2000000000000002 0.1 0.0
1.6 0.1 0.0
2.0 0.1 0.0
2.4000000000000004 0.1 0.0
2.8000000000000003 0.1 0.0
3.2 0.1 0.0
3.6 0.1 0.0
4.0 0.1 0.0
4.4 0.1 0.0
4.800000000000001 0.1 0.0
5.2 0.1 0.0
5.6000000000000005 0.1 0.0
6.0 0.1 0.0
6.4 0.1 0.0
6.800000000000001 0.1 0.0
7.2 0.1 0.0
7.6000000000000005 0.1 0.0
8.0 0.1 0.0
8.4 0.1 0.0
8.8 0.1 0.0
9.200000000000001 0.1 0.0
9.600000000000001 0.1 0.0
10.0 0.1 0.0
10.4 0.1 0.0
10.8 0.1 0.0
11.200000000000001 0.1 0.0
11.600000000000001 0.1 0.0
12.0 0.1 0.0
12.4 0.1 0.0
12.8 0.1 0.0
13.200000000000001 0.1 0.0
13.600000000000001 0.1 0.0
14.0 0.1 0.0
14.4 0.1 0.0
14.8 0.1 0.0
15.200000000000001 0.1 0.0
15.600000000000001 0.1 0.0
16.0 0.1 0.0
0.0 0.2 0.0
0.4 0.2 0.0
0.8 0.2 0.0
1.2000000000000002 0.2 0.0
1.6 0.2 0.0
2.0 0.2 0.0
2.4000000000000004 0.2 0.0
2.8000000000000003 0.2 0.0
3.2 0.2 0.0
3.6 0.2 0.0
4.0 0.2 0.0
4.4 0.2 0.0
4.800000000000001 0.2 0.0
5.2 0.2 0.0
5.6000000000000005 0.2 0.0
6.0 0.2 0.0
6.4 0.2 0.0
6.800000000000001 0.2 0.0
7.2 0.2 0.0
7.6000000000000005 0.2 0.0
8.0 0.2 0.0
8.4 0.2 0.0
8.8 0.2 0.0
9.200000000000001 0.2 0.0
9.600000000000001 0.2 0.0
10.0 0.2 0.0
10.4 0.2 0.0
10.8 0.2 0.0
11.200000000000001 0.2 0.0
11.600000000000001 0.2 0.0
12.0 0.2 0.0
12.4 0.2 0.0
12.8 0.2 0.0
13.200000000000001 0.2 0.0
13.600000000000001 0.2 0.0
14.0 0.2 0.0
14.4 0.2 0.0
14.8 0.2 0.0
15.200000000000001 0.2 0.0
15.600000000000001 0.2 0.0
16.0 0.2 0.0
0.0 0.30000000000000004 0.0
0.4 0.30000000000000004 0.0
0.8 0.30000000000000004 0.0
1.2000000000000002 0.30000000000000004 0.0
1.6 0.30000000000000004 0.0
2.0 0.30000000000000004 0.0
2.4000000000000004 0.30000000000000004 0.0
2.8000000000000003 0.30000000000000004 0.0
3.2 0.30000000000000004 0.0
3.6 0.30000000000000004 0.0
4.0 0.30000000000000004 0.0
4.4 0.30000000000000004 0.0
4.800000000000001 0.30000000000000004 0.0
5.2 0.30000000000000004 0.0
5.6000000000000005 0.30000000000000004 0.0
6.0 0.30000000000000004 0.0
6.4 0.30000000000000004 0.0
6.800000000000001 0.30000000000000004 0.0
7.2 0.30000000000000004 0.0
7.6000000000000005 0.30000000000000004 0.0
8.0 0.30000000000000004 0.0
8.4 0.30000000000000004 0.0
8.8 0.30000000000000004 0.0
9.200000000000001 0.30000000000000004 0.0
9.600000000000001 0.30000000000000004 0.0
10.0 0.30000000000000004 0.0
10.4 0.30000000000000004 0.0
10.8 0.30000000000000004 0.0
11.200000000000001 0.30000000000000004 0.0
11.600000000000001 0.30000000000000004 0.0
12.0 0.30000000000000004 0.0
12.4 0.30000000000000004 0.0
12.8 0.30000000000000004 0.0
13.200000000000001 0.30000000000000004 0.0
13.600000000000001 0.30000000000000004 0.0
14.0 0.30000000000000004 0.0
14.4 0.30000000000000004 0.0
14.8 0.30000000000000004 0.0
15.200000000000001 0.30000000000000004 0.0
15.600000000000001 0.30000000000000004 0.0
16.0 0.30000000000000004 0.0
0.0 0.4 0.0
0.4 0.4 0.0
0.8 0.4 0.0
1.2000000000000002 0.4 0.0
1.6 0.4 0.0
2.0 0.4 0.0
2.4000000000000004 0.4 0.0
2.8000000000000003 0.4 0.0
3.2 0.4 0.0
3.6 0.4 0.0
4.0 0.4 0.0
4.4 0.4 0.0
4.800000000000001 0.4 0.0
5.2 0.4 0.0
5.6000000000000005 0.4 0.0
6.0 0.4 0.0
6.4 0.4 0.0
6.800000000000001 0.4 0.0
7.2 0.4 0.0
7.6000000000000005 0.4 0.0
8.0 0.4 0.0
8.4 0.4 0.0
8.8 0.4 0.0
9.200000000000001 0.4 0.0
9.600000000000001 0.4 0.0
10.0 0.4 0.0
10.4 0.4 0.0
10.8 0.4 0.0
11.200000000000001 0.4 0.0
11.600000000000001 0.4 0.0
12.0 0.4 0.0
12.4 0.4 0.0
12.8 0.4 0.0
13.200000000000001 0.4 0.0
13.600000000000001 0.4 0.0
14.0 0.4 0.0
14.4 0.4 0.0
14.8 0.4 0.0
15.200000000000001 0.4 0.0
15.600000000000001 0.4 0.0
16.0 0.4 0.0
0.0 0.5 0.0
0.4 0.5 0.0
0.8 0.5 0.0
1.2000000000000002 0.5 0.0
1.6 0.5 0.0
2.0 0.5 0.0
2.4000000000000004 0.5 0.0
2.8000000000000003 0.5 0.0
3.2 0.5 0.0
3.6 0.5 0.0
4.0 0.5 0.0
4.4 0.5 0.0
4.800000000000001 0.5 0.0
5.2 0.5 0.0
5.6000000000000005 0.5 0.0
6.0 0.5 0.0
6.4 0.5 0.0
6.800000000000001 0.5 0.0
7.2 0.5 0.0
7.6000000000000005 0.5 0.0
8.0 0.5 0.0
8.4 0.5 0.0
8.8 0.5 0.0
9.200000000000001 0.5 0.0
9.600000000000001 0.5 0.0
10.0 0.5 0.0
10.4 0.5 0.0
10.8 0.5 0.0
11.200000000000001 0.5 0.0
11.600000000000001 0.5 0.0
12.0 0.5 0.0
12.4 0.5 0.0
12.8 0.5 0.0
13.200000000000001 0.5 0.0
13.600000000000001 0.5 0.0
14.0 0.5 0.0
14.4 0.5 0.0
14.8 0.5 0.0
15.200000000000001 0.5 0.0
15.600000000000001 0.5 0.0
16.0 0.5 0.0
0.0 0.6000000000000001 0.0
0.4 0.6000000000000001 0.0
0.8 0.6000000000000001 0.0
1.2000000000000002 0.6000000000000001 0.0
1.6 0.6000000000000001 0.0
2.0 0.6000000000000001 0.0
2.4000000000000004 0.6000000000000001 0.0
2.8000000000000003 0.6000000000000001 0.0
3.2 0.6000000000000001 0.0
3.6 0.6000000000000001 0.0
4.0 0.6000000000000001 0.0
4.4 0.6000000000000001 0.0
4.800000000000001 0.6000000000000001 0.0
5.2 0.6000000000000001 0.0
5.6000000000000005 0.6000000000000001 0.0
6.0 0.6000000000000001 0.0
6.4 0.6000000000000001 0.0
6.800000000000001 0.6000000000000001 0.0
7.2 0.6000000000000001 0.0
7.6000000000000005 0.6000000000000001 0.0
8.0 0.6000000000000001 0.0
8.4 0.6000000000000001 0.0
8.8 0.6000000000000001 0.0
9.200000000000001 0.6000000000000001 0.0
9.600000000000001 0.6000000000000001 0.0
10.0 0.6000000000000001 0.0
10.4 0.6000000000000001 0.0
10.8 0.6000000000000001 0.0
11.200000000000001 0.6000000000000001 0.0
11.600000000000001 0.6000000000000001 0.0
12.0 0.6000000000000001 0.0
12.4 0.6000000000000001 0.0
12.8 0.6000000000000001 0.0
13.200000000000001 0.6000000000000001 0.0
13.600000000000001 0.6000000000000001 0.0
14.0 0.6000000000000001 0.0
14.4 0.6000000000000001 0.0
14.8 0.6000000000000001 0.0
15.200000000000001 0.6000000000000001 0.0
15.600000000000001 0.6000000000000001 0.0
16.0 0.6000000000000001 0.0
0.0 0.7000000000000001 0.0
0.4 0.7000000000000001 0.0
0.8 0.7000000000000001 0.0
1.2000000000000002 0.7000000000000001 0.0
1.6 0.7000000000000001 0.0
2.0 0.7000000000000001 0.0
2.4000000000000004 0.7000000000000001 0.0
2.8000000000000003 0.7000000000000001 0.0
3.2 0.7000000000000001 0.0
3.6 0.7000000000000001 0.0
4.0 0.7000000000000001 0.0
4.4 0.7000000000000001 0.0
4.800000000000001 0.7000000000000001 0.0
5.2 0.7000000000000001 0.0
5.6000000000000005 0.7000000000000001 0.0
6.0 0.7000000000000001 0.0
6.4 0.7000000000000001 0.0
6.800000000000001 0.7000000000000001 0.0
7.2 0.7000000000000001 0.0
7.6000000000000005 0.7000000000000001 0.0
8.0 0.7000000000000001 0.0
8.4 0.7000000000000001 0.0
8.8 0.7000000000000001 0.0
9.200000000000001 0.7000000000000001 0.0
9.600000000000001 0.7000000000000001 0.0
10.0 0.7000000000000001 0.0
10.4 0.7000000000000001 0.0
10.8 0.7000000000000001 0.0
11.200000000000001 0.7000000000000001 0.0
11.600000000000001 0.7000000000000001 0.0
12.0 0.7000000000000001 0.0
12.4 0.7000000000000001 0.0
12.8 0.7000000000000001 0.0
13.200000000000001 0.7000000000000001 0.0
13.600000000000001 0.7000000000000001 0.0
14.0 0.7000000000000001 0.0
14.4 0.7000000000000001 0.0
14.8 0.7000000000000001 0.0
15.200000000000001 0.7000000000000001 0.0
15.600000000000001 0.7000000000000001 0.0
16.0 0.7000000000000001 0.0
0.0 0.8 0.0
0.4 0.8 0.0
0.8 0.8 0.0
1.2000000000000002 0.8 0.0
1.6 0.8 0.0
2.0 0.8 0.0
2.4000000000000004 0.8 0.0
2.8000000000000003 0.8 0.0
3.2 0.8 0.0
3.6 0.8 0.0
4.0 0.8 0.0
4.4 0.8 0.0
4.800000000000001 0.8 0.0
5.2 0.8 0.0
5.6000000000000005 0.8 0.0
6.0 0.8 0.0
6.4 0.8 0.0
6.800000000000001 0.8 0.0
7.2 0.8 0.0
7.6000000000000005 0.8 0.0
8.0 0.8 0.0
8.4 0.8 0.0
8.8 0.8 0.0
9.200000000000001 0.8 0.0
9.600000000000001 0.8 0.0
10.0 0.8 0.0
10.4 0.8 0.0
10.8 0.8 0.0
11.200000000000001 0.8 0.0
11.600000000000001 0.8 0.0
12.0 0.8 0.0
12.4 0.8 0.0
12.8 0.8 0.0
13.200000000000001 0.8 0.0
13.600000000000001 0.8 0.0
14.0 0.8 0.0
14.4 0.8 0.0
14.8 0.8 0.0
15.200000000000001 0.8 0.0
15.600000000000001 0.8 0.0
16.0 0.8 0.0
0.0 0.9 0.0
0.4 0.9 0.0
0.8 0.9 0.0
1.2000000000000002 0.9 0.0
1.6 0.9 0.0
2.0 0.9 0.0
2.4000000000000004 0.9 0.0
2.8000000000000003 0.9 0.0
3.2 0.9 0.0
3.6 0.9 0.0
4.0 0.9 0.0
4.4 0.9 0.0
4.800000000000001 0.9 0.0
5.2 0.9 0.0
5.6000000000000005 0.9 0.0
6.0 0.9 0.0
6.4 0.9 0.0
6.800000000000001 0.9 0.0
7.2 0.9 0.0
7.6000000000000005 0.9 0.0
8.0 0.9 0.0
8.4 0.9 0.0
8.8 0.9 0.0
9.200000000000001 0.9 0.0
9.600000000000001 0.9 0.0
10.0 0.9 0.0
10.4 0.9 0.0
10.8 0.9 0.0
11.200000000000001 0.9 0.0
11.600000000000001 0.9 0.0
12.0 0.9 0.0
12.4 0.9 0.0
12.8 0.9 0.0
13.200000000000001 0.9 0.0
13.600000000000001 0.9 0.0
14.0 0.9 0.0
14.4 0.9 0.0
14.8 0.9 0.0
15.200000000000001 0.9 0.0
15.600000000000001 0.9 0.0
16.0 0.9 0.0
0.0 1.0 0.0
0.4 1.0 0.0
0.8 1.0 0.0
1.2000000000000002 1.0 0.0
1.6 1.0 0.0
2.0 1.0 0.0
2.4000000000000004 1.0 0.0
2.8000000000000003 1.0 0.0
3.2 1.0 0.0
3.6 1.0 0.0
4.0 1.0 0.0
4.4 1.0 0.0
4.800000000000001 1.0 0.0
5.2 1.0 0.0
5.6000000000000005 1.0 0.0
6.0 1.0 0.0
6.4 1.0 0.0
6.800000000000001 1.0 0.0
7.2 1.0 0.0
7.6000000000000005 1.0 0.0
8.0 1.0 0.0
8.4 1.0 0.0
8.8 1.0 0.0
9.200000000000001 1.0 0.0
9.600000000000001 1.0 0.0
10.0 1.0 0.0
10.4 1.0 0.0
10.8 1.0 0.0
11.200000000000001 1.0 0.0
11.600000000000001 1.0 0.0
12.0 1.0 0.0
12.4 1.0 0.0
12.8 1.0 0.0
13.200000000000001 1.0 0.0
13.600000000000001 1.0 0.0
14.0 1.0 0.0
14.4 1.0 0.0
14.8 1.0 0.0
15.200000000000001 1.0 0.0
15.600000000000001 1.0 0.0
16.0 1.0 0.0
0.0 1.1 0.0
0.4 1.1 0.0
0.8 1.1 0.0
1.2000000000000002 1.1 0.0
1.6 1.1 0.0
[...]
POINT_DATA 861
SCALARS Disp float 2
LOOKUP_TABLE default
0.0 0.0
0.0047553346952066596 -0.1608620915849976
0.005847679067556529 -0.31397951046826666
0.00658318617265648 -0.4663115449883225
0.0074798373529667206 -0.6183390846856459
0.008780396430948965 -0.7697894086736384
0.010871325145754816 -0.9203153157181186
0.01417820577110027 -1.0694985540172448
0.01918719778827313 -1.2168228073328595
0.026420816294261018 -1.3616260197649341
0.03641277211363726 -1.5030218369630413
0.04971346534489465 -1.6398373143437497
0.066900395392098 -1.770604336354046
0.08857088612425869 -1.8936122677790261
0.11534049289112545 -2.0069558654645077
0.1477729623692489 -2.1085721595117612
0.18625028636973903 -2.1962825854495325
0.23080785048797275 -2.2678637845082217
0.28098356922740825 -2.321194763028321
0.33574221523048464 -2.354487582304568
0.3933897391631756 -2.36651266269564
0.4510372630958638 -2.3544875823045004
0.5057959090989308 -2.3211947630281826
0.5559716278383485 -2.2678637845080214
0.6005291919565607 -2.1962825854492816
0.6390065159570274 -2.1085721595114753
0.6714389854351271 -2.0069558654641932
0.6982085922019703 -1.8936122677786926
0.7198790829341069 -1.7706043363537034
0.7370660129812865 -1.6398373143434095
0.7503667062125232 -1.503021836962712
0.7603586620318821 -1.361626019764623
0.7675922805378561 -1.216822807332571
0.7726012725550186 -1.0694985540169832
0.7759081531803564 -0.9203153157178869
0.7779990818951578 -0.7697894086734413
0.7792996409731379 -0.6183390846854836
0.7801962921534475 -0.46631154498819694
0.7809317992585473 -0.3139795104681771
0.7820241436308961 -0.16086209158494638
0.7867794783260995 0.0
0.04013465089080323 -0.0020445157185209474
0.04337441425930614 -0.16103102606359948
0.04396535747396752 -0.3140410452043802
0.044624658798892415 -0.46639330364184034
0.045422920701795585 -0.6184511670388598
0.04654516954774721 -0.7700084827517983
0.04835843678567465 -0.9207401221886804
0.05126731510304168 -1.0702409243870918
0.05572835381492485 -1.2180063954450948
0.06221661019950879 -1.3633752034696365
0.07120611080159535 -1.5054612623012602
0.08317406219295392 -1.6430968023715216
0.09862457614490552 -1.774822520006445
0.11810515811317851 -1.8989356481628201
0.14218180031330352 -2.0135315358684984
0.17138256970588106 -2.1165230859266013
0.20607383421815997 -2.2056702469621565
0.24631059675561787 -2.278648808864423
0.2917021779734346 -2.3332063546126034
0.3412974794165769 -2.3674066858490708
0.3933897391631674 -2.3797963915260163
0.4454819989097549 -2.3674066858490015
0.4950773003528883 -2.3332063546124617
0.5404688815706896 -2.278648808864218
0.5807056441081289 -2.2056702469619
0.6153969086203871 -2.1165230859263096
0.6445976780129433 -2.0135315358681782
0.6686743202130468 -1.8989356481624813
0.6881549021812982 -1.774822520006097
0.7036054161332286 -1.6430968023711763
0.7155733675245686 -1.5054612623009265
0.7245628681266393 -1.363375203469322
0.7310511245112106 -1.2180063954448035
0.7355121632230843 -1.0702409243868285
0.7384210415404446 -0.9207401221884476
0.740234308778368 -0.7700084827516006
0.741356557624318 -0.6184511670386973
0.7421548195272207 -0.4663933036417148
0.7428141208521455 -0.31404104520429066
0.743405064066807 -0.16103102606354802
0.746644827435305 -0.002044515718518569
0.07942389890152338 -0.0036468440373323427
0.08176127468842778 -0.16111114484092587
0.08210448268741417 -0.31407803918920757
0.08264388500535673 -0.4664665972818699
0.08335088834684945 -0.6185441806777581
0.08431346942461487 -0.7701826602014313
0.08585165452103109 -0.9210909581249543
0.08836293641999482 -1.0708742708819925
0.09226696874025322 -1.2190372671300793
0.09799470283496099 -1.3649159332470808
0.1059629490238296 -1.507621175262026
0.11658314120733447 -1.6459876609458817
0.13028882479191745 -1.7785663640595881
0.14756192468229398 -1.903666756183438
0.16892326546373318 -2.0193856158937264
0.19486002213567347 -2.123615888601501
0.22572759945053114 -2.2140643081538847
0.261616921537969 -2.288317382950396
0.3022148593174606 -2.3440015767901983
0.3466465997735064 -2.3790189246454703
0.39338973916315945 -2.391744963384501
0.44013287855280964 -2.379018924645399
0.4845646190088472 -2.344001576790054
0.5251625567883252 -2.288317382950187
0.5610518788757469 -2.2140643081536235
0.5919194561905864 -2.1236158886012046
0.6178562128625078 -2.019385615893402
0.6392175536439276 -1.903666756183094
0.6564906535342849 -1.7785663640592353
0.6701963371188493 -1.6459876609455317
0.6808165293023375 -1.5076211752616884
0.688784775491192 -1.3649159332467629
0.6945125095858884 -1.2190372671297858
0.6984165419061382 -1.0708742708817272
0.7009278238050961 -0.9210909581247204
0.702466008901509 -0.7701826602012333
0.7034285899792732 -0.6185441806775954
0.7041355933207657 -0.4664665972817444
0.7046749956387082 -0.31407803918911814
0.7050182036376946 -0.16111114484087413
0.7073555794245944 -0.003646844037327531
0.11827202715522553 -0.004926434879994616
0.12001290343031387 -0.1611650223221081
0.12022349045991426 -0.31409894024767426
0.12064580663026915 -0.4665272297044775
0.12125792314589863 -0.6186240809297037
0.12208141710486964 -0.7703180480624591
0.12335926103408494 -0.9213697332865814
0.12547432896313718 -1.0713998428665998
0.128817664914194 -1.2199141720380253
0.13377532025062272 -1.366245776259915
0.14071069764357605 -1.5094988409884913
0.14997234731019773 -1.648508774351441
0.1619274887964979 -1.7818356336202288
0.1769908900644252 -1.9078030599868268
0.19562138690387676 -2.024513495672109
0.2182717855942703 -2.129844051402843
0.2452887648696087 -2.221457874000292
0.27680029140513895 -2.296864893511929
0.3125763695414371 -2.353576963777782
0.3518766505783198 -2.3893474361697975
0.39338973916315173 -2.4024105640165434
0.4349028277479811 -2.389347436169725
0.4742031087848563 -2.353576963777635
0.5099791869211424 -2.296864893511717
0.5414907134566584 -2.221457874000027
0.5685076927319812 -2.1298440514025425
0.591158091422358 -2.0245134956717803
0.6097885882617928 -1.9078030599864784
0.6248519895297029 -1.7818356336198717
0.6368071310159871 -1.6485087743510873
0.6460687806825942 -1.50949884098815
0.653004158075535 -1.3662457762595943
0.6579618134119538 -1.2199141720377296
0.661305149363003 -1.0713998428663332
0.6634202172920503 -0.9213697332863466
0.664698061221263 -0.7703180480622607
0.6655215551802331 -0.6186240809295409
0.6661336716958624 -0.46652722970435206
0.6665559878662173 -0.314098940247585
0.6667665748958177 -0.16116502232205607
0.6685074511709019 -0.0049264348799875875
0.15686538871010408 -0.005953704364287031
0.158168786879316 -0.16120939620008262
0.15830635089462716 -0.31411084187693905
0.15862841079668447 -0.46657432797769643
0.15914224117247308 -0.6186924926374042
0.1598399177160734 -0.77042441162096
0.16088677351180905 -0.9215822708417368
0.1626108235169668 -1.0718195011474412
0.1653953071528192 -1.220637932744972
0.16957931578686433 -1.3673640044332285
0.17547590328329507 -1.5110936459529125
0.183375447351384 -1.6506598911525812
0.19357838212005077 -1.7846311566337036
0.20643185571519782 -1.9113455804833877
0.22233527325813693 -2.0289136153115868
0.2416902279973857 -2.1352037639999097
0.26483471339639136 -2.227845318745314
0.29193645420179043 -2.3042838996088664
0.32286168343146654 -2.361930897748535
0.35704096773624583 -2.398408518900036
0.3933897391631442 -2.4118229402223226
0.4297385105900404 -2.3984085188999624
0.4639177948948126 -2.361930897748386
0.49484302412447806 -2.30428389960865
0.5219447649298652 -2.2278453187450458
0.5450892503288571 -2.1352037639996047
0.5644442050680915 -2.028913615311254
0.580347622611016 -1.911345580483035
0.5932010962061486 -1.784631156633343
0.6034040309748018 -1.650659891152224
0.6113035750428781 -1.5110936459525683
0.6172001625392982 -1.3673640044329054
0.6213841711733347 -1.220637932744674
0.6241686548091806 -1.0718195011471732
0.6258927048143342 -0.9215822708415013
0.626939560610068 -0.7704244116207613
0.6276372371536677 -0.6186924926372414
0.6281510675294562 -0.466574327977571
0.6284731274315135 -0.31411084187684984
0.6286106914468247 -0.16120939620003036
0.6299140896160331 -0.005953704364278089
0.19528958827770151 -0.00677341538773833
0.1962568830514446 -0.16124947404820986
0.19635110998984084 -0.3141186147969122
0.19658929086233518 -0.46660882579099733
0.19700321364975326 -0.6187498510526288
0.1975831909980943 -0.7705087167051872
0.19842537465093874 -0.921739563127388
0.19978873468834016 -1.0721366839227022
0.2020153303997128 -1.2212108729201048
0.2054281489719395 -1.3682720176547376
0.21028626884229373 -1.512406391903905
0.21682466808202652 -1.6524427054558555
0.225281045585304 -1.786955371276043
0.2359341467444235 -1.9142969018328537
0.24911525870820556 -2.0325886502820962
0.2651828346344362 -2.139695149346339
0.28444994896517767 -2.233222275362778
0.30711062024809377 -2.310566651763202
0.33314594314902485 -2.369058956642388
0.36218544118358786 -2.4062087679346025
0.3933897391631367 -2.4199990241154326
0.42459403714268334 -2.406208767934528
0.45363353517724 -2.369058956642237
0.4796688580781623 -2.3105666517629837
0.5023295293610681 -2.233222275362507
0.5215966436917979 -2.139695149346031
0.5376642196180164 -2.0325886502817605
0.5508453315817864 -1.9142969018324982
0.5614984327408941 -1.7869553712756796
0.56995481024416 -1.6524427054554955
0.5764932094838824 -1.5124063919035584
0.5813513293542278 -1.3682720176544125
0.5847641479264473 -1.2212108729198055
0.5869907436378148 -1.0721366839224333
0.5883541036752129 -0.9217395631271522
0.5891962873280561 -0.7705087167049882
0.5897762646763967 -0.6187498510524659
0.5901901874638145 -0.4666088257908719
0.5904283683363089 -0.31411861479682296
0.590522595274705 -0.16124947404815743
0.5914898900484453 -0.006773415387727784
0.23359082259464922 -0.007420112140242432
0.23429689012587246 -0.16128674469594098
0.23436179185532882 -0.31412475852804594
0.23452785307271298 -0.46663218946946844
0.23484282509971077 -0.6187955692912391
0.23530699992306503 -0.7705756198437902
0.23596469923862712 -0.9218537947366297
0.23700264398256723 -1.0723634737245533
0.23869902672709772 -1.22163696597082
0.24134455033994912 -1.368973117020953
0.24517103029525414 -1.5134401468497232
0.25035518846697025 -1.6538605266845536
0.25707531892924046 -1.7888127462615153
0.2655433793482213 -1.9166624800296257
0.2760237497808679 -2.035543186470936
0.28881598302181827 -2.1433220278206857
0.30421026517933647 -2.2375885169760075
0.32241646119523104 -2.315706066198984
0.34351426302633103 -2.374951732720551
0.36735780674937574 -2.412744436661702
0.3933897391631289 -2.4269447394625008
0.41942167157688026 -2.4127444366616264
0.4432652152999195 -2.3749517327203984
0.46436301713101236 -2.315706066198764
0.4825692131468984 -2.237588516975734
0.4979634953044071 -2.143322027820375
0.5107557285453476 -2.0355431864705973
0.5212360989779845 -1.9166624800292678
0.5297041593969563 -1.7888127462611492
0.5364242898592173 -1.653860526684191
0.541608448030925 -1.5134401468493746
0.545434927986223 -1.3689731170206263
0.5480804515990686 -1.2216369659705195
0.549776834343595 -1.0723634737242838
0.5508147790875328 -0.9218537947363936
0.5514724784030941 -0.7705756198435914
0.5519366532264481 -0.6187955692910763
0.5522516252534457 -0.46663218946934293
0.5524176864708298 -0.3141247585279567
0.5524825882002862 -0.16128674469588838
0.5531886557315073 -0.007420112140230571
0.27180062155221235 -0.0079211731139791
0.2723033516438627 -0.1613225744835132
0.27234438732850746 -0.3141298345579783
0.27244536518440915 -0.4666458468669692
0.27266379189379697 -0.6188288178370183
0.2730085663082772 -0.7706278838695562
0.2735004703524534 -0.9219338181926853
0.2742444944842384 -1.0725153581131726
0.2754520595596034 -1.2219282605087893
0.27735725750635043 -1.3694733438067697
0.2801619271792676 -1.5142002099695608
0.2840032161221736 -1.6549188944739848
0.2890036191989214 -1.7902100313807112
0.2953096718417216 -1.9184504360829326
0.3031158848590194 -2.037786104603061
0.3126612900352535 -2.1460911331708314
0.32419921731317847 -2.24094726332886
0.3379431225764391 -2.3196982739667793
0.3540564388307256 -2.3795955990766444
0.37261307911572134 -2.418000264824181
0.3933897391631208 -2.432654438309694
0.4141663992105189 -2.4180002648241046
0.43272303949551083 -2.37959559907649
0.4488363557497914 -2.3196982739665573
0.4625802610130454 -2.2409472633285845
0.4741181882909628 -2.146091133170519
0.4836635934671895 -2.0377861046027204
0.4914698064844804 -1.9184504360825727
0.49777585912727373 -1.790210031380343
0.5027762622040148 -1.6549188944736204
0.5066175511469145 -1.5142002099692107
0.5094222208198265 -1.3694733438064415
0.5113274187665694 -1.2219282605084878
0.5125349838419316 -1.0725153581129023
0.5132790079737152 -0.9219338181924491
0.5137709120178908 -0.7706278838693572
0.5141156864323708 -0.6188288178368554
0.5143341131417586 -0.4666458468668437
0.5144350909976602 -0.31412983455788906
0.5144761266823048 -0.1613225744834606
0.5149788567739537 -0.007921173113966192
0.3099369179236824 -0.008303279408983474
0.310289850674903 -0.16135799435784362
0.31030418281539107 -0.3141331885290531
0.3103445166484094 -0.4666508852974766
0.3104696351102481 -0.6188493601974469
0.3106912582397342 -0.7706649252269165
0.3110205253724032 -0.9219888845568825
0.3115062053688453 -1.0726081969898413
0.31227044458663433 -1.2221038849443822
0.3134818641793954 -1.3697872086149159
0.31529416167670865 -1.5146961233268643
0.31781233957823224 -1.6556269588087638
0.32111235742712807 -1.7911572804536098
0.32528412999219875 -1.9196725997547093
0.3304526527161122 -2.0393301208320866
0.33678801499431793 -2.148014011423131
0.3444958345940836 -2.2433069246139365
0.3537916676169189 -2.322543530686856
0.36487854243155904 -2.382974790249107
0.37801825605121137 -2.4219489837390653
0.3933897391631124 -2.4371100697431394
0.4087612222750127 -2.421948983738989
0.42190093589466254 -2.3829747902489515
0.4329878107092984 -2.3225435306866324
0.44228364373212875 -2.2433069246136603
0.44999146333188944 -2.148014011422817
0.4563268256100903 -2.0393301208317443
0.4614953483339993 -1.9196725997543482
0.46566712089906565 -1.7911572804532407
0.46896713874795737 -1.655626958808398
0.47148531664947696 -1.514696123326513
0.4732976141467867 -1.369787208614587
0.4745090337395452 -1.2221038849440806
0.4752732729573327 -1.0726081969895707
0.475758952953774 -0.9219888845566463
0.4760882200864427 -0.7706649252267177
0.4763098432159287 -0.618849360197284
0.4764349616777673 -0.46665088529735105
0.47647529551078555 -0.3141331885289638
0.4764896276512735 -0.161357994357791
0.4768425604024933 -0.008303279408969827
0.3480114762620311 -0.008594366720291858
0.3482609377777195 -0.1613943772025403
0.34824644917150277 -0.3141335025728726
0.34822899070839725 -0.46664813212228945
0.34826385282590094 -0.6188574145748663
0.34836121585084434 -0.7706853783773081
0.3485226179923074 -0.9220220285070165
0.3487665658454496 -1.0726593493962657
0.3491384460521186 -1.222190075990647
0.3497188342579925 -1.3699410916000356
0.35059171748761153 -1.5149495389892687
0.35182468312908766 -1.6560027721964796
0.3534520288655957 -1.7916716960625698
0.3555181072805225 -1.9203476866846332
0.35808747694045323 -2.04019548128405
0.3612548192447627 -2.149109833082113
0.36516445857407676 -2.244682295598664
0.3700220737383161 -2.324253086871737
0.3760874291978148 -2.3850805616637065
0.3836769500687163 -2.424550630815563
0.3933897391631039 -2.4402754750406657
0.40310252825749093 -2.4245506308154856
0.4106920491283913 -2.3850805616635506
0.41675740458788746 -2.3242530868715128
0.42161501975212395 -2.2446822955983867
0.42552465908143566 -2.1491098330817975
0.4286920013857429 -2.0401954812837073
0.43126137104567186 -1.9203476866842717
0.4333274494605971 -1.7916716960622001
0.4349547951971033 -1.656002772196113
0.4361877608385777 -1.5149495389889165
0.4370606440681953 -1.3699410915997063
0.43764103227406814 -1.222190075990345
0.4380129124807365 -1.0726593493959953
0.4382568603338785 -0.9220220285067802
0.4384182624753414 -0.7706853783771093
0.4385156255002848 -0.6188574145747034
0.4385504876177885 -0.4666481321221638
0.43853302915468284 -0.3141335025727833
0.4385185405484662 -0.16139437720248773
0.438768002064154 -0.008594366720277694
0.38603995194809404 -0.008817087894573817
0.38621657664373366 -0.16143230005344403
0.3861757576803119 -0.31412999008459996
0.3861030289946754 -0.46663811630794383
0.38605063395904576 -0.6188532545199297
0.38602451793652964 -0.7706888819831303
0.38601495152166426 -0.9220323267991655
0.3860125958328258 -1.072676249247091
0.38601232693868237 -1.222216588485818
0.38601261643126616 -1.3699834126840718
0.3860128248386495 -1.515015113286207
0.38601300872415895 -1.6560997889210745
0.3860105559374321 -1.7918052092402315
0.3860032973107238 -1.9205244525333436
0.385991318085431 -2.0404296622546063
0.385999067650716 -2.1494229651561456
0.3861126291497896 -2.2451123503100887
0.3865332481634504 -2.324861011514669
0.3875898544881033 -2.3859455332166557
0.3896647930957997 -2.4257789156369185
0.393389739163095 -2.4420991039286237
0.39711468523039034 -2.425778915636841
0.39918962383808637 -2.3859455332164994
0.4002462301627386 -2.3248610115144444
0.4006668491763994 -2.2451123503098116
0.40078041067547354 -2.1494229651558303
0.4007881602407589 -2.0404296622542626
0.4007761810154669 -1.9205244525329823
0.4007689223887595 -1.7918052092398615
0.4007664696020335 -1.6560997889207079
0.40076665348754376 -1.5150151132858547
0.4007668618949276 -1.3699834126837425
0.4007671513875117 -1.222216588485516
0.4007668824933684 -1.0726762492468205
0.4007645268045302 -0.922032326798929
0.4007549603896649 -0.7706888819829315
0.40072884436714884 -0.6188532545197668
0.40067644933151936 -0.4666381163078182
0.40060372064588284 -0.3141299900845106
0.4005629016824611 -0.1614323000533915
0.40073952637810045 -0.008817087894559351
0.4240336206835032 -0.008990683772955073
0.4241605889978174 -0.16146945516690867
0.4240959292642931 -0.3141229625461112
0.42397119930364513 -0.4666210958190339
0.42383446994502494 -0.6188373480651467
0.4236869371814565 -0.7706755234166959
0.4235074394789608 -0.9220192976585806
0.423258410317588 -1.072658851326113
0.42288615238284893 -1.2221901629113774
0.422306381143642 -1.3699411415170424
0.4214344506208084 -1.514949802451074
0.4202015349692176 -1.656002276012213
0.41856913286183395 -1.791669827077646
0.4164878412869934 -1.9203431754235623
0.4138953231814406 -2.0401924169264736
0.4107449864420232 -2.149129931196066
0.4070558259383435 -2.244785449331372
0.402981718345796 -2.3245563368376554
0.39885556249982246 -2.385738867885108
0.3952018311871167 -2.425744960848483
0.39338973916308617 -2.4426960162413454
0.39157764713905496 -2.4257449608484047
0.38792391582634933 -2.3857388678849523
0.3837977599803775 -2.324556336837431
0.37972365238783345 -2.2447854493310944
0.37603449188415733 -2.14912993119575
0.37288415514474316 -2.0401924169261307
0.3702916370391935 -1.920343175423201
0.3682103454643563 -1.791669827077277
0.3665779433569764 -1.6560022760118467
0.36534502770538885 -1.5149498024507222
0.3644730971825579 -1.369941141516713
0.3638933259433526 -1.2221901629110754
0.36352106800861433 -1.0726588513258426
0.36327203884724224 -0.9220192976583444
0.36309254114474687 -0.7706755234164969
0.36294500838117866 -0.6188373480649837
0.3628082790225587 -0.4666210958189082
0.36268354906191075 -0.31412296254602184
0.36261888932838643 -0.16146945516685612
0.3627458576427005 -0.008990683772940392
0.46200843821079396 -0.00912457589279585
0.4620977413874796 -0.1615039558171532
0.4620114369182141 -0.31411264554977036
0.46183798937208703 -0.4665974207590534
0.4616202055942191 -0.6188102861489866
0.46135426303947036 -0.7706455986066493
0.46100822684093223 -0.9219834755470079
0.4605184708308655 -1.0726072235483621
0.4597539454060173 -1.2221040661907023
0.4585437111721518 -1.3697874945479205
0.45673223022774817 -1.5146964486366339
0.45421357518911554 -1.6556258738207024
0.4509091807788641 -1.7911529655610028
0.44672416239002816 -1.919663036906811
0.4415345597611591 -2.0393236005963375
0.43521237254561257 -2.1480544598859352
0.42770085703686567 -2.24351217746474