# vtk DataFile Version 3.0
Some data
ASCII
DATASET UNSTRUCTURED_GRID
POINTS 861 float
0.0 0.0 0.0
0.4 0.0 0.0
0.8 0.0 0.0
1.2000000000000002 0.0 0.0
1.6 0.0 0.0
2.0 0.0 0.0
2.4000000000000004 0.0 0.0
2.8000000000000003 0.0 0.0
3.2 0.0 0.0
3.6 0.0 0.0
4.0 0.0 0.0
4.4 0.0 0.0
4.800000000000001 0.0 0.0
5.2 0.0 0.0
5.6000000000000005 0.0 0.0
6.0 0.0 0.0
6.4 0.0 0.0
6.800000000000001 0.0 0.0
7.2 0.0 0.0
7.6000000000000005 0.0 0.0
8.0 0.0 0.0
8.4 0.0 0.0
8.8 0.0 0.0
9.200000000000001 0.0 0.0
9.600000000000001 0.0 0.0
10.0 0.0 0.0
10.4 0.0 0.0
10.8 0.0 0.0
11.200000000000001 0.0 0.0
11.600000000000001 0.0 0.0
12.0 0.0 0.0
12.4 0.0 0.0
12.8 0.0 0.0
13.200000000000001 0.0 0.0
13.600000000000001 0.0 0.0
14.0 0.0 0.0
14.4 0.0 0.0
14.8 0.0 0.0
15.200000000000001 0.0 0.0
15.600000000000001 0.0 0.0
16.0 0.0 0.0
0.0 0.1 0.0
0.4 0.1 0.0
0.8 0.1 0.0
1.2000000000000002 0.1 0.0
1.6 0.1 0.0
2.0 0.1 0.0
2.4000000000000004 0.1 0.0
2.8000000000000003 0.1 0.0
3.2 0.1 0.0
3.6 0.1 0.0
4.0 0.1 0.0
4.4 0.1 0.0
4.800000000000001 0.1 0.0
5.2 0.1 0.0
5.6000000000000005 0.1 0.0
6.0 0.1 0.0
6.4 0.1 0.0
6.800000000000001 0.1 0.0
7.2 0.1 0.0
7.6000000000000005 0.1 0.0
8.0 0.1 0.0
8.4 0.1 0.0
8.8 0.1 0.0
9.200000000000001 0.1 0.0
9.600000000000001 0.1 0.0
10.0 0.1 0.0
10.4 0.1 0.0
10.8 0.1 0.0
11.200000000000001 0.1 0.0
11.600000000000001 0.1 0.0
12.0 0.1 0.0
12.4 0.1 0.0
12.8 0.1 0.0
13.200000000000001 0.1 0.0
13.600000000000001 0.1 0.0
14.0 0.1 0.0
14.4 0.1 0.0
14.8 0.1 0.0
15.200000000000001 0.1 0.0
15.600000000000001 0.1 0.0
16.0 0.1 0.0
0.0 0.2 0.0
0.4 0.2 0.0
0.8 0.2 0.0
1.2000000000000002 0.2 0.0
1.6 0.2 0.0
2.0 0.2 0.0
2.4000000000000004 0.2 0.0
2.8000000000000003 0.2 0.0
3.2 0.2 0.0
3.6 0.2 0.0
4.0 0.2 0.0
4.4 0.2 0.0
4.800000000000001 0.2 0.0
5.2 0.2 0.0
5.6000000000000005 0.2 0.0
6.0 0.2 0.0
6.4 0.2 0.0
6.800000000000001 0.2 0.0
7.2 0.2 0.0
7.6000000000000005 0.2 0.0
8.0 0.2 0.0
8.4 0.2 0.0
8.8 0.2 0.0
9.200000000000001 0.2 0.0
9.600000000000001 0.2 0.0
10.0 0.2 0.0
10.4 0.2 0.0
10.8 0.2 0.0
11.200000000000001 0.2 0.0
11.600000000000001 0.2 0.0
12.0 0.2 0.0
12.4 0.2 0.0
12.8 0.2 0.0
13.200000000000001 0.2 0.0
13.600000000000001 0.2 0.0
14.0 0.2 0.0
14.4 0.2 0.0
14.8 0.2 0.0
15.200000000000001 0.2 0.0
15.600000000000001 0.2 0.0
16.0 0.2 0.0
0.0 0.30000000000000004 0.0
0.4 0.30000000000000004 0.0
0.8 0.30000000000000004 0.0
1.2000000000000002 0.30000000000000004 0.0
1.6 0.30000000000000004 0.0
2.0 0.30000000000000004 0.0
2.4000000000000004 0.30000000000000004 0.0
2.8000000000000003 0.30000000000000004 0.0
3.2 0.30000000000000004 0.0
3.6 0.30000000000000004 0.0
4.0 0.30000000000000004 0.0
4.4 0.30000000000000004 0.0
4.800000000000001 0.30000000000000004 0.0
5.2 0.30000000000000004 0.0
5.6000000000000005 0.30000000000000004 0.0
6.0 0.30000000000000004 0.0
6.4 0.30000000000000004 0.0
6.800000000000001 0.30000000000000004 0.0
7.2 0.30000000000000004 0.0
7.6000000000000005 0.30000000000000004 0.0
8.0 0.30000000000000004 0.0
8.4 0.30000000000000004 0.0
8.8 0.30000000000000004 0.0
9.200000000000001 0.30000000000000004 0.0
9.600000000000001 0.30000000000000004 0.0
10.0 0.30000000000000004 0.0
10.4 0.30000000000000004 0.0
10.8 0.30000000000000004 0.0
11.200000000000001 0.30000000000000004 0.0
11.600000000000001 0.30000000000000004 0.0
12.0 0.30000000000000004 0.0
12.4 0.30000000000000004 0.0
12.8 0.30000000000000004 0.0
13.200000000000001 0.30000000000000004 0.0
13.600000000000001 0.30000000000000004 0.0
14.0 0.30000000000000004 0.0
14.4 0.30000000000000004 0.0
14.8 0.30000000000000004 0.0
15.200000000000001 0.30000000000000004 0.0
15.600000000000001 0.30000000000000004 0.0
16.0 0.30000000000000004 0.0
0.0 0.4 0.0
0.4 0.4 0.0
0.8 0.4 0.0
1.2000000000000002 0.4 0.0
1.6 0.4 0.0
2.0 0.4 0.0
2.4000000000000004 0.4 0.0
2.8000000000000003 0.4 0.0
3.2 0.4 0.0
3.6 0.4 0.0
4.0 0.4 0.0
4.4 0.4 0.0
4.800000000000001 0.4 0.0
5.2 0.4 0.0
5.6000000000000005 0.4 0.0
6.0 0.4 0.0
6.4 0.4 0.0
6.800000000000001 0.4 0.0
7.2 0.4 0.0
7.6000000000000005 0.4 0.0
8.0 0.4 0.0
8.4 0.4 0.0
8.8 0.4 0.0
9.200000000000001 0.4 0.0
9.600000000000001 0.4 0.0
10.0 0.4 0.0
10.4 0.4 0.0
10.8 0.4 0.0
11.200000000000001 0.4 0.0
11.600000000000001 0.4 0.0
12.0 0.4 0.0
12.4 0.4 0.0
12.8 0.4 0.0
13.200000000000001 0.4 0.0
13.600000000000001 0.4 0.0
14.0 0.4 0.0
14.4 0.4 0.0
14.8 0.4 0.0
15.200000000000001 0.4 0.0
15.600000000000001 0.4 0.0
16.0 0.4 0.0
0.0 0.5 0.0
0.4 0.5 0.0
0.8 0.5 0.0
1.2000000000000002 0.5 0.0
1.6 0.5 0.0
2.0 0.5 0.0
2.4000000000000004 0.5 0.0
2.8000000000000003 0.5 0.0
3.2 0.5 0.0
3.6 0.5 0.0
4.0 0.5 0.0
4.4 0.5 0.0
4.800000000000001 0.5 0.0
5.2 0.5 0.0
5.6000000000000005 0.5 0.0
6.0 0.5 0.0
6.4 0.5 0.0
6.800000000000001 0.5 0.0
7.2 0.5 0.0
7.6000000000000005 0.5 0.0
8.0 0.5 0.0
8.4 0.5 0.0
8.8 0.5 0.0
9.200000000000001 0.5 0.0
9.600000000000001 0.5 0.0
10.0 0.5 0.0
10.4 0.5 0.0
10.8 0.5 0.0
11.200000000000001 0.5 0.0
11.600000000000001 0.5 0.0
12.0 0.5 0.0
12.4 0.5 0.0
12.8 0.5 0.0
13.200000000000001 0.5 0.0
13.600000000000001 0.5 0.0
14.0 0.5 0.0
14.4 0.5 0.0
14.8 0.5 0.0
15.200000000000001 0.5 0.0
15.600000000000001 0.5 0.0
16.0 0.5 0.0
0.0 0.6000000000000001 0.0
0.4 0.6000000000000001 0.0
0.8 0.6000000000000001 0.0
1.2000000000000002 0.6000000000000001 0.0
1.6 0.6000000000000001 0.0
2.0 0.6000000000000001 0.0
2.4000000000000004 0.6000000000000001 0.0
2.8000000000000003 0.6000000000000001 0.0
3.2 0.6000000000000001 0.0
3.6 0.6000000000000001 0.0
4.0 0.6000000000000001 0.0
4.4 0.6000000000000001 0.0
4.800000000000001 0.6000000000000001 0.0
5.2 0.6000000000000001 0.0
5.6000000000000005 0.6000000000000001 0.0
6.0 0.6000000000000001 0.0
6.4 0.6000000000000001 0.0
6.800000000000001 0.6000000000000001 0.0
7.2 0.6000000000000001 0.0
7.6000000000000005 0.6000000000000001 0.0
8.0 0.6000000000000001 0.0
8.4 0.6000000000000001 0.0
8.8 0.6000000000000001 0.0
9.200000000000001 0.6000000000000001 0.0
9.600000000000001 0.6000000000000001 0.0
10.0 0.6000000000000001 0.0
10.4 0.6000000000000001 0.0
10.8 0.6000000000000001 0.0
11.200000000000001 0.6000000000000001 0.0
11.600000000000001 0.6000000000000001 0.0
12.0 0.6000000000000001 0.0
12.4 0.6000000000000001 0.0
12.8 0.6000000000000001 0.0
13.200000000000001 0.6000000000000001 0.0
13.600000000000001 0.6000000000000001 0.0
14.0 0.6000000000000001 0.0
14.4 0.6000000000000001 0.0
14.8 0.6000000000000001 0.0
15.200000000000001 0.6000000000000001 0.0
15.600000000000001 0.6000000000000001 0.0
16.0 0.6000000000000001 0.0
0.0 0.7000000000000001 0.0
0.4 0.7000000000000001 0.0
0.8 0.7000000000000001 0.0
1.2000000000000002 0.7000000000000001 0.0
1.6 0.7000000000000001 0.0
2.0 0.7000000000000001 0.0
2.4000000000000004 0.7000000000000001 0.0
2.8000000000000003 0.7000000000000001 0.0
3.2 0.7000000000000001 0.0
3.6 0.7000000000000001 0.0
4.0 0.7000000000000001 0.0
4.4 0.7000000000000001 0.0
4.800000000000001 0.7000000000000001 0.0
5.2 0.7000000000000001 0.0
5.6000000000000005 0.7000000000000001 0.0
6.0 0.7000000000000001 0.0
6.4 0.7000000000000001 0.0
6.800000000000001 0.7000000000000001 0.0
7.2 0.7000000000000001 0.0
7.6000000000000005 0.7000000000000001 0.0
8.0 0.7000000000000001 0.0
8.4 0.7000000000000001 0.0
8.8 0.7000000000000001 0.0
9.200000000000001 0.7000000000000001 0.0
9.600000000000001 0.7000000000000001 0.0
10.0 0.7000000000000001 0.0
10.4 0.7000000000000001 0.0
10.8 0.7000000000000001 0.0
11.200000000000001 0.7000000000000001 0.0
11.600000000000001 0.7000000000000001 0.0
12.0 0.7000000000000001 0.0
12.4 0.7000000000000001 0.0
12.8 0.7000000000000001 0.0
13.200000000000001 0.7000000000000001 0.0
13.600000000000001 0.7000000000000001 0.0
14.0 0.7000000000000001 0.0
14.4 0.7000000000000001 0.0
14.8 0.7000000000000001 0.0
15.200000000000001 0.7000000000000001 0.0
15.600000000000001 0.7000000000000001 0.0
16.0 0.7000000000000001 0.0
0.0 0.8 0.0
0.4 0.8 0.0
0.8 0.8 0.0
1.2000000000000002 0.8 0.0
1.6 0.8 0.0
2.0 0.8 0.0
2.4000000000000004 0.8 0.0
2.8000000000000003 0.8 0.0
3.2 0.8 0.0
3.6 0.8 0.0
4.0 0.8 0.0
4.4 0.8 0.0
4.800000000000001 0.8 0.0
5.2 0.8 0.0
5.6000000000000005 0.8 0.0
6.0 0.8 0.0
6.4 0.8 0.0
6.800000000000001 0.8 0.0
7.2 0.8 0.0
7.6000000000000005 0.8 0.0
8.0 0.8 0.0
8.4 0.8 0.0
8.8 0.8 0.0
9.200000000000001 0.8 0.0
9.600000000000001 0.8 0.0
10.0 0.8 0.0
10.4 0.8 0.0
10.8 0.8 0.0
11.200000000000001 0.8 0.0
11.600000000000001 0.8 0.0
12.0 0.8 0.0
12.4 0.8 0.0
12.8 0.8 0.0
13.200000000000001 0.8 0.0
13.600000000000001 0.8 0.0
14.0 0.8 0.0
14.4 0.8 0.0
14.8 0.8 0.0
15.200000000000001 0.8 0.0
15.600000000000001 0.8 0.0
16.0 0.8 0.0
0.0 0.9 0.0
0.4 0.9 0.0
0.8 0.9 0.0
1.2000000000000002 0.9 0.0
1.6 0.9 0.0
2.0 0.9 0.0
2.4000000000000004 0.9 0.0
2.8000000000000003 0.9 0.0
3.2 0.9 0.0
3.6 0.9 0.0
4.0 0.9 0.0
4.4 0.9 0.0
4.800000000000001 0.9 0.0
5.2 0.9 0.0
5.6000000000000005 0.9 0.0
6.0 0.9 0.0
6.4 0.9 0.0
6.800000000000001 0.9 0.0
7.2 0.9 0.0
7.6000000000000005 0.9 0.0
8.0 0.9 0.0
8.4 0.9 0.0
8.8 0.9 0.0
9.200000000000001 0.9 0.0
9.600000000000001 0.9 0.0
10.0 0.9 0.0
10.4 0.9 0.0
10.8 0.9 0.0
11.200000000000001 0.9 0.0
11.600000000000001 0.9 0.0
12.0 0.9 0.0
12.4 0.9 0.0
12.8 0.9 0.0
13.200000000000001 0.9 0.0
13.600000000000001 0.9 0.0
14.0 0.9 0.0
14.4 0.9 0.0
14.8 0.9 0.0
15.200000000000001 0.9 0.0
15.600000000000001 0.9 0.0
16.0 0.9 0.0
0.0 1.0 0.0
0.4 1.0 0.0
0.8 1.0 0.0
1.2000000000000002 1.0 0.0
1.6 1.0 0.0
2.0 1.0 0.0
2.4000000000000004 1.0 0.0
2.8000000000000003 1.0 0.0
3.2 1.0 0.0
3.6 1.0 0.0
4.0 1.0 0.0
4.4 1.0 0.0
4.800000000000001 1.0 0.0
5.2 1.0 0.0
5.6000000000000005 1.0 0.0
6.0 1.0 0.0
6.4 1.0 0.0
6.800000000000001 1.0 0.0
7.2 1.0 0.0
7.6000000000000005 1.0 0.0
8.0 1.0 0.0
8.4 1.0 0.0
8.8 1.0 0.0
9.200000000000001 1.0 0.0
9.600000000000001 1.0 0.0
10.0 1.0 0.0
10.4 1.0 0.0
10.8 1.0 0.0
11.200000000000001 1.0 0.0
11.600000000000001 1.0 0.0
12.0 1.0 0.0
12.4 1.0 0.0
12.8 1.0 0.0
13.200000000000001 1.0 0.0
13.600000000000001 1.0 0.0
14.0 1.0 0.0
14.4 1.0 0.0
14.8 1.0 0.0
15.200000000000001 1.0 0.0
15.600000000000001 1.0 0.0
16.0 1.0 0.0
0.0 1.1 0.0
0.4 1.1 0.0
0.8 1.1 0.0
1.2000000000000002 1.1 0.0
1.6 1.1 0.0
[...]
POINT_DATA 861
SCALARS Disp float 2
LOOKUP_TABLE default
0.0 0.0
0.004802706695669908 -0.1641459878955163
0.005904127610769691 -0.32048249362276476
0.006641669519243304 -0.47602267774207513
0.007542536445664465 -0.6312565432051137
0.00885505171656006 -0.7859062186484699
0.01097409865996132 -0.9396171897992149
0.014337683530230015 -1.0919608198386697
0.01944718124372326 -1.2424077810145941
0.026841990259746804 -1.390279331054224
0.03707230645672869 -1.5346667171976838
0.050702145392566934 -1.674367781150105
0.0683180415067185 -1.8078792677061886
0.09052173544132668 -1.9334518660560658
0.11792891067469774 -2.0491399299159454
0.15109975363706127 -2.152839612416309
0.19040964568701038 -2.2423322532805874
0.23588502434967984 -2.315357143963251
0.28705316538566567 -2.369761127265331
0.34286677250220265 -2.4037301055813898
0.4016141807643887 -2.416015751670267
0.460361589026572 -2.4037301055813205
0.5161751961430993 -2.3697611272651877
0.5673433371790672 -2.3153571439630447
0.6128187158417138 -2.2423322532803276
0.6521286078916383 -2.152839612416014
0.6852994508539778 -2.0491399299156208
0.7127066260873242 -1.9334518660557218
0.7349103200219074 -1.8078792677058355
0.7525262161360348 -1.674367781149754
0.7661560550718515 -1.5346667171973438
0.7763863712688154 -1.3902793310539034
0.7837811802848244 -1.2424077810142968
0.7888906779983071 -1.091960819838401
0.7922542628685683 -0.9396171897989765
0.7943733098119647 -0.7859062186482673
0.7956858250828585 -0.6312565432049468
0.796586692009279 -0.4760226777419461
0.7973242339177524 -0.3204824936226729
0.7984256548328511 -0.16414598789546386
0.8032283615285177 0.0
0.04095325104506335 -0.002061302231698597
0.04422943239718462 -0.1643189483604811
0.044824320760868216 -0.32054390678939154
0.04548509666201955 -0.4761047590721299
0.04628668139872945 -0.6313697375147637
0.04741849917457111 -0.786128789630493
0.04925526360109195 -0.9400504771302898
0.052213152748015475 -1.0927201784273493
0.05676311392372592 -1.2436208259944816
0.06339587560559654 -1.3920745112018107
0.07260035036954199 -1.5371723169300087
0.08486577120416164 -1.6777163180104087
0.10070425381484129 -1.8122109303486043
0.12066705751329276 -1.9389136507336753
0.14532013019863643 -2.0558784613256997
0.17518812759576033 -2.160976595800388
0.21063144253623825 -2.2519273122808587
0.25169733111158393 -2.326368632475004
0.29798596205770705 -2.3820155805858185
0.3485342612755222 -2.4169050273871218
0.40161418076438027 -2.4295610515492583
0.4546941002532352 -2.4169050273870507
0.5052423994710412 -2.3820155805856724
0.5515310304171487 -2.3263686324747925
0.5925969189924747 -2.2519273122805936
0.6280402339329311 -2.160976595800087
0.657908231330033 -2.0558784613253693
0.6825613040153545 -1.9389136507333256
0.7025241077137835 -1.8122109303482454
0.7183625903244415 -1.6777163180100523
0.7306280111590417 -1.5371723169296643
0.7398324859229708 -1.3920745112014863
0.7464652476048282 -1.2436208259941819
0.7510152087805291 -1.0927201784270784
0.7539730979274458 -0.9400504771300503
0.7558098623539626 -0.7861287896302899
0.7569416801298027 -0.6313697375145966
0.7577432648665123 -0.4761047590720009
0.7584040407676634 -0.3205439067892996
0.758998929131347 -0.16431894836042837
0.7622751104834634 -0.0020613022316962265
0.08105493775788472 -0.0036776636824588783
0.08342044927527392 -0.16440125115235643
0.08376581314771651 -0.3205807194867098
0.08430638326669164 -0.47617823473601917
0.08501592239153143 -0.6314635083239207
0.08598588682976757 -0.7863056773284668
0.08754324744644659 -0.9404082961405568
0.09009599173370195 -1.0933681096322883
0.09407718541987717 -1.2446776099393475
0.09993220072458862 -1.3936562031598583
0.10809120810106462 -1.5393914632356254
0.11897620390938876 -1.6806870472629425
0.133027714970968 -1.8160566440552848
0.15073090184515728 -1.9437690114403114
0.17260634492349988 -2.0618787267315932
0.19913819454943163 -2.1682363810044203
0.23067672794379296 -2.2605075504751966
0.26730637694810316 -2.3362406407713103
0.30870596995609356 -2.3930290913956784
0.35398869932276367 -2.4287465536141526
0.401614180764372 -2.4417439521433995
0.4492396622059775 -2.4287465536140798
0.494522391572639 -2.3930290913955297
0.5359219845806156 -2.3362406407710945
0.572551633584909 -2.260507550474927
0.6040901669792513 -2.1682363810041148
0.6306220166051633 -2.061878726731258
0.6524974596834863 -1.9437690114399566
0.6702006465576555 -1.8160566440549208
0.6842521576192158 -1.6806870472625812
0.6951371534275224 -1.539391463235277
0.7032961608039838 -1.3936562031595305
0.7091511761086835 -1.2446776099390453
0.71313236979485 -1.0933681096320156
0.7156851140820994 -0.9404082961403162
0.7172424746987751 -0.7863056773282631
0.7182124391370102 -0.6314635083237534
0.7189219782618496 -0.4761782347358901
0.7194625483808246 -0.3205807194866179
0.7198079122532673 -0.16440125115230342
0.7221734237706519 -0.0036776636824540484
0.1207121382885546 -0.004968795838013587
0.12247515915026204 -0.1644566237910694
0.12268705400001624 -0.3206015118516394
0.1231103116892528 -0.47623900221339566
0.1237244515659323 -0.6315438885611571
0.12455336134282766 -0.7864430555157845
0.12584638493029432 -0.9406926534612133
0.1279956392414763 -1.0939058711201182
0.1314043683091688 -1.2455768101754228
0.13647178544163927 -1.395021827692565
0.14357315804851006 -1.5413212279270325
0.1530662201284808 -1.6832786188587927
0.16532418175317676 -1.8194159063501214
0.1807645301537474 -1.948015152114683
0.19984586384449723 -2.0671358653784333
0.2230183862345225 -2.1746122641714627
0.2506246032595737 -2.268065971110569
0.2827871910139423 -2.3449685168622363
0.3192692047013018 -2.4027981333633153
0.359320099883017 -2.4392785901835126
0.40161418076436406 -2.45261831362509
0.4439082616457085 -2.439278590183438
0.4839591568274158 -2.402798133363164
0.5204411705147631 -2.3449685168620173
0.552603758269117 -2.268065971110295
0.580209975294152 -2.1746122641711523
0.6033824976841595 -2.067135865378094
0.6224638313748923 -1.9480151521143234
0.6379041797754451 -1.8194159063497533
0.6501621414001246 -1.6832786188584277
0.6596552034800802 -1.5413212279266804
0.6667565760869383 -1.3950218276922346
0.6718239932193983 -1.2455768101751183
0.675232722287083 -1.0939058711198437
0.67738197659826 -0.940692653460972
0.678675000185724 -0.7864430555155804
0.6795039099626186 -0.6315438885609896
0.6801180498392978 -0.47623900221326665
0.6805413075285344 -0.32060151185154756
0.6807532023782886 -0.16445662379101614
0.682516223239992 -0.004968795838006537
0.1601127738639139 -0.006005617397592708
0.16143349198871312 -0.16450202225438576
0.16157193707665546 -0.32061336858617084
0.161894819701393 -0.47628621758476863
0.16241036778720908 -0.6316125902162988
0.1631118910598989 -0.7865507652518549
0.164170223385308 -0.9409094641105394
0.16592156384693713 -1.0943353826552753
0.1687598734885504 -1.246319225864014
0.1730360614473364 -1.396170572548289
0.17907359878368176 -1.5429608619221498
0.1871707025373865 -1.685490616852447
0.19763282771592178 -1.8222893432288834
0.2108093826324657 -1.9516528695282822
0.22709959665658233 -2.0716481246017837
0.2469030465345112 -2.180100269336638
0.2705544039808802 -2.274596803174132
0.29821724087489776 -2.352544682810842
0.3297525213834443 -2.411321191036352
0.36458320665223287 -2.4485180540293525
0.40161418076435623 -2.462214822115324
0.43864515487647726 -2.4485180540292775
0.47347584014525873 -2.4113211910361985
0.5050111206537944 -2.3525446828106196
0.5326739575477994 -2.274596803173855
0.5563253149941545 -2.180100269336323
0.5761287648720679 -2.0716481246014404
0.5924189788961697 -1.9516528695279185
0.6055955338126987 -1.8222893432285114
0.6160576589912199 -1.6854906168520785
0.6241547627449117 -1.5429608619217945
0.6301923000812459 -1.396170572547956
0.634468488040023 -1.2463192258637072
0.6373067976816297 -1.0943353826549997
0.6390581381432549 -0.9409094641102973
0.6401164704686618 -0.7865507652516505
0.6408179937413511 -0.6316125902161314
0.641333541827167 -0.47628621758463946
0.6416564244519045 -0.32061336858607914
0.6417948695398469 -0.16450202225433225
0.6431155876646426 -0.00600561739758374
0.19934308431655148 -0.00683317953004695
0.2003236341065998 -0.16454276371772522
0.20041853497064602 -0.3206211509561079
0.20065748375402934 -0.476320825913411
0.20107291402726954 -0.6316701500007966
0.20165566065168725 -0.7866359121823784
0.2025060028769673 -0.9410698113512921
0.20389019381781104 -1.0946602047760348
0.20615945854923975 -1.24690720883453
0.20964705388389995 -1.3971038097493516
0.2146210549642718 -1.5443111002975816
0.22132297543506296 -1.6873246291211947
0.22999457843598523 -1.824679252838283
0.24091638936443985 -1.9546845917226556
0.2544197472639715 -2.075418021183112
0.27086165090601205 -2.184700377086372
0.29055265204248254 -2.2800955144337354
0.3136837785898287 -2.3589612435177907
0.3402328646762121 -2.4185938903343316
0.3698250077990324 -2.4564719116369824
0.40161418076434846 -2.4705510073368933
0.4334033537296621 -2.456471911636906
0.4629954968524764 -2.418593890334176
0.48954458293885045 -2.3589612435175655
0.5126757094861861 -2.280095514433455
0.5323667106226447 -2.1847003770860542
0.5488086142646723 -2.0754180211827657
0.5623119721641914 -1.9546845917222888
0.573233783092634 -1.824679252837908
0.5819053860935443 -1.6873246291208235
0.5886073065643246 -1.5443111002972238
0.5935813076446872 -1.3971038097490167
0.5970689029793401 -1.246907208834222
0.5993381677107635 -1.094660204775758
0.6007223586516041 -0.9410698113510495
0.6015727008768826 -0.786635912182174
0.6021554475013 -0.6316701500006292
0.60257087777454 -0.47632082591328184
0.6028098265579233 -0.32062115095601623
0.6029047274219694 -0.1645427637176715
0.603885277212015 -0.006833179530036349
0.23844956163780673 -0.007486227809022104
0.23916542545884284 -0.16458040561089377
0.2392309266792076 -0.32062735238868484
0.23939773092826624 -0.4763442865864624
0.23971396962527358 -0.6317160569969982
0.240180289249918 -0.7867032957282432
0.2408434224208528 -0.9411860258664925
0.24189620917831603 -1.0948925238651406
0.24362466588002576 -1.2473448432872472
0.24632804496106223 -1.3978248699782987
0.25024557196140285 -1.5453749972315323
0.2555593067032601 -1.6887839252154455
0.2624506355258403 -1.8265900330805316
0.2711328618257863 -1.9571156700154824
0.2818705706553809 -2.0784500430607356
0.2949626003911447 -2.188416292473516
0.31069735402486515 -2.2845617259178104
0.32928269530256526 -2.364210950375031
0.3507972419229315 -2.424606742832073
0.3750943107059426 -2.4631365427362506
0.4016141807643404 -2.477633113956032
0.4281340508227362 -2.4631365427361733
0.4524311196057422 -2.4246067428319162
0.47394566622610085 -2.364210950374804
0.4925310075037923 -2.284561725917528
0.5082657611375029 -2.1884162924731956
0.5213577908732561 -2.0784500430603865
0.5320954997028408 -1.9571156700151133
0.5407777260027773 -1.8265900330801539
0.5476690548253481 -1.6887839252150716
0.5529827895671966 -1.5453749972311726
0.5569003165675299 -1.397824869977962
0.5596036956485606 -1.2473448432869378
0.5613321523502663 -1.094892523864863
0.5623849391077272 -0.9411860258662494
0.5630480722786612 -0.7867032957280388
0.5635143919033053 -0.6317160569968305
0.5638306306003125 -0.47634428658633315
0.563997434849371 -0.3206273523885932
0.5640629360697357 -0.16458040561083997
0.5647787998907697 -0.00748622780901018
0.27746391671750603 -0.007992317845295593
0.2779735424013514 -0.16461635397616323
0.2780151670743199 -0.32063252987594837
0.2781168520753844 -0.4763580248530044
0.2783362567347149 -0.6317494751295878
0.27868273863280135 -0.7867558551035944
0.2791781256405251 -0.9412672025352945
0.27993168565114035 -1.095047999376897
0.2811613969493332 -1.247644316573884
0.28310823590975037 -1.398339901332235
0.28597970412919027 -1.5461578932493116
0.2899169782126436 -1.689874060254249
0.29504480218872264 -1.8280284294833407
0.30151059204090624 -1.9589541944103634
0.30950918325651117 -2.080752994908131
0.31927956546436626 -2.1912546760528375
0.33107430891914774 -2.2879985684418354
0.34510565086607586 -2.368289746382872
0.36153760533343604 -2.429345880387587
0.38044732820602545 -2.4684965467540874
0.4016141807643321 -2.483455539266303
0.42278103332263733 -2.4684965467540083
0.4416907561952229 -2.429345880387428
0.458122710662577 -2.3682897463826427
0.47215405260949816 -2.287998568441551
0.48394879606427205 -2.1912546760525147
0.49371917827211914 -2.0807529949077797
0.5017177694877166 -1.9589541944099924
0.5081835593398935 -1.8280284294829612
0.5133113833159658 -1.689874060253873
0.5172486573994124 -1.5461578932489504
0.5201201256188469 -1.398339901331897
0.5220669645792598 -1.2476443165735738
0.52329667587745 -1.095047999376619
0.5240502358880637 -0.9412672025350515
0.524545622895787 -0.7867558551033896
0.5248921047938732 -0.6317494751294203
0.5251115094532035 -0.47635802485287515
0.525213194454268 -0.3206325298758566
0.5252548191272364 -0.16461635397610935
0.5257644448110804 -0.007992317845282593
0.3164042463109674 -0.008378254434917264
0.31676171109147233 -0.16465168445958164
0.31677660970778887 -0.3206360166903367
0.31681755284794355 -0.47636312633451583
0.3169433450505375 -0.6317701394797312
0.3171661523250005 -0.7867931304520359
0.31749775013904463 -0.9413228430638462
0.3179886349584605 -1.09514279432639
0.31876595778695255 -1.2478249729022588
0.320003670005628 -1.3986635677195909
0.32185938567691785 -1.5466694409370754
0.3244406785938089 -1.6906042450427923
0.32782487558663637 -1.8290045400753974
0.33210239087496474 -1.9602120227825324
0.33739860137762034 -2.0823395757416585
0.3438840125450748 -2.19322700847284
0.35176476980314925 -2.290414421379295
0.36125632708220606 -2.3711977712377506
0.37256276716211695 -2.4327951399644205
0.385952636231205 -2.47252417167335
0.40161418076432337 -2.48799994297042
0.4172757252974411 -2.472524171673271
0.4306655943665267 -2.4327951399642607
0.4419720344464332 -2.3711977712375205
0.4514635917254849 -2.29041442137901
0.4593443489835542 -2.1932270084725154
0.46582976015100325 -2.0823395757413055
0.47112597065365425 -1.9602120227821602
0.4754034859419785 -1.8290045400750168
0.47878768293480173 -1.6906042450424152
0.4813689758516885 -1.5466694409367128
0.4832246915229746 -1.3986635677192518
0.4844624037416478 -1.247824972901948
0.48523972657013803 -1.0951427943261118
0.48573061138955315 -0.941322843063603
0.4860622092035969 -0.7867931304518313
0.4862850164780598 -0.6317701394795636
0.4864108086806537 -0.4763631263343866
0.4864517518208083 -0.320636016690245
0.48646665043712467 -0.16465168445952774
0.4868241152176288 -0.008378254434903514
0.35528243096926815 -0.008672060926471386
0.35553469458053244 -0.16468784089968155
0.3555205537940907 -0.32063646259646367
0.35550353751211716 -0.4763604149239718
0.3555387622315257 -0.6317782601379447
0.3556367295077686 -0.7868137392678652
0.35579933646289263 -0.9413563174445285
0.35604585719980664 -1.0951947030420528
0.3564231938976663 -1.2479133857649978
0.3570154708724635 -1.3988224867826184
0.3579093508248281 -1.5469314626067
0.35917354900068743 -1.6909926412687264
0.36084262415408674 -1.8295356349312877
0.36296118990861503 -1.960907931981684
0.36559413170741195 -2.0832300489633546
0.36883681537122587 -2.194352383245665
0.3728351612121345 -2.2918240252957442
0.3777967959700069 -2.3729463040568897
0.38398283525955296 -2.434945376765568
0.39171626094261325 -2.4751785411543303
0.40161418076431454 -2.491229407254349
0.4115121005860156 -2.47517854115425
0.4192455262690749 -2.4349453767654072
0.425431565558618 -2.3729463040566587
0.4303932003164876 -2.2918240252954583
0.43439154615739384 -2.1943523832453393
0.43763422982120526 -2.0832300489630002
0.4402671716200003 -1.9609079319813114
0.4423857373745271 -1.8295356349309062
0.44405481252792456 -1.6909926412683483
0.4453190107037818 -1.5469314626063368
0.446212890656145 -1.398822486782279
0.4468051676309413 -1.2479133857646867
0.4471825043288004 -1.0951947030417744
0.447429025065714 -0.9413563174442853
0.4475916320208379 -0.7868137392676604
0.4476895992970808 -0.631778260137777
0.4477248240164894 -0.47636041492384257
0.4477078077345158 -0.3206364625963719
0.44769366694807394 -0.16468784089962768
0.4479459305593378 -0.008672060926457118
0.39411416317120695 -0.008896564519138452
0.39429237300935654 -0.16472553477696997
0.3942515979038583 -0.32063302996649784
0.39417907041275496 -0.4763504193243527
0.3941267107814908 -0.6317741069195003
0.39410060947590403 -0.7868173028199728
0.39409100588777013 -0.9413667362298231
0.3940886145909695 -1.095211829245522
0.3940883243556027 -1.247940421762656
0.3940886137741113 -1.3988658417897466
0.3940888169876836 -1.5469990950870214
0.3940889514980773 -1.6910929081406425
0.39408638790110617 -1.8296734480420898
0.39407874984716745 -1.961090572463741
0.39406639266480215 -2.0834717960058486
0.3940749116161485 -2.194675033327024
0.39419285682546795 -2.2922661289743735
0.3946253116746885 -2.373569452370062
0.39570493861454487 -2.435829222830236
0.39781714218552583 -2.47643216984427
0.40161418076430533 -2.4930907881356075
0.4054112193430852 -2.4764321698441902
0.40752342291406607 -2.4358292228300753
0.4086030498539214 -2.3735694523698303
0.4090355047031418 -2.2922661289740875
0.4091534499124621 -2.1946750333266984
0.4091619688638086 -2.0834717960054943
0.4091496116814442 -1.961090572463368
0.4091419736275064 -1.829673448041708
0.40913941003053617 -1.6910929081402644
0.4091395445409306 -1.5469990950866583
0.4091397477545034 -1.398865841789407
0.4091400371730125 -1.2479404217623447
0.409139746937646 -1.0952118292452437
0.40913735564084536 -0.9413667362295799
0.40912775205271157 -0.786817302819768
0.40910165074712496 -0.6317741069193327
0.40904929111586086 -0.47635041932422345
0.40897676362475754 -0.32063302996640597
0.4089359885192593 -0.16472553477691615
0.4091141983574086 -0.008896564519123861
0.4329106823778903 -0.00907133051344317
0.4330384207075544 -0.16476252100591643
0.4329735536765231 -0.3206260158447058
0.43284873642727206 -0.4763333895549298
0.4327116959681422 -0.6317581458724736
0.43256356064884005 -0.7868039009142147
0.43238280725913153 -0.9413535944029036
0.43213114348690523 -1.0951942039637066
0.4317533936521054 -1.2479134669545284
0.4311617257513572 -1.398822532249605
0.4302687792419201 -1.5469317070775779
0.4290045564343682 -1.690992122737762
0.4273301362508234 -1.8295336370996198
0.4251956137757301 -1.960903200209808
0.4225388646256118 -2.083226973173319
0.4193148616904413 -2.1943735053915656
0.41554579788392243 -2.291930703601138
0.41139054397438424 -2.373257629342523
0.407186795878478 -2.435617322508053
0.40346331195702095 -2.476396460207764
0.40161418076429617 -2.493699005012061
0.3997650495715713 -2.4763964602076847
0.39604156565011445 -2.4356173225078916
0.3918378175542097 -2.373257629342292
0.387682563644675 -2.2919307036008525
0.38391349983816014 -2.1943735053912405
0.3806894969029926 -2.083226973172965
0.3780327477528776 -1.9609032002094349
0.37589822527778777 -1.8295336370992388
0.3742238050942468 -1.690992122737384
0.37295958228669834 -1.5469317070772155
0.3720666357772639 -1.3988225322492658
0.37147496787651746 -1.2479134669542173
0.3710972180417187 -1.095194203963428
0.3708455542694928 -0.9413535944026602
0.3706648008797847 -0.7868039009140101
0.37051666556048285 -0.631758145872306
0.3703796251013531 -0.47633338955480065
0.370254807852102 -0.32062601584461387
0.3701899408210708 -0.16476252100586264
0.37031767915073477 -0.009071330513428358
0.4716878611963583 -0.009206105291820416
0.4717775830265805 -0.16479689552591745
0.47169086407555155 -0.3206156615813034
0.47151704587758586 -0.4763096696373172
0.4712986065778412 -0.6317309697304222
0.4710314586220707 -0.7867738264530197
0.4706830639598787 -0.9413174521901373
0.4701880327714491 -1.0951418160687834
0.46941040272925955 -1.2478251441499264
0.4681738791867058 -1.3986638473298214
0.4663189665584848 -1.5466697405731848
0.46373711560179615 -1.690603091726542
0.4603482425706249 -1.8289999758036208
0.45605683743346637 -1.9602020426113427
0.4507390717114695 -2.082333073910991
0.4442686900005186 -2.19326957245375
0.4365929459410327 -2.290626750193029