# vtk DataFile Version 3.0
Some data
ASCII
DATASET UNSTRUCTURED_GRID
POINTS 861 float
0.0 0.0 0.0
0.4 0.0 0.0
0.8 0.0 0.0
1.2000000000000002 0.0 0.0
1.6 0.0 0.0
2.0 0.0 0.0
2.4000000000000004 0.0 0.0
2.8000000000000003 0.0 0.0
3.2 0.0 0.0
3.6 0.0 0.0
4.0 0.0 0.0
4.4 0.0 0.0
4.800000000000001 0.0 0.0
5.2 0.0 0.0
5.6000000000000005 0.0 0.0
6.0 0.0 0.0
6.4 0.0 0.0
6.800000000000001 0.0 0.0
7.2 0.0 0.0
7.6000000000000005 0.0 0.0
8.0 0.0 0.0
8.4 0.0 0.0
8.8 0.0 0.0
9.200000000000001 0.0 0.0
9.600000000000001 0.0 0.0
10.0 0.0 0.0
10.4 0.0 0.0
10.8 0.0 0.0
11.200000000000001 0.0 0.0
11.600000000000001 0.0 0.0
12.0 0.0 0.0
12.4 0.0 0.0
12.8 0.0 0.0
13.200000000000001 0.0 0.0
13.600000000000001 0.0 0.0
14.0 0.0 0.0
14.4 0.0 0.0
14.8 0.0 0.0
15.200000000000001 0.0 0.0
15.600000000000001 0.0 0.0
16.0 0.0 0.0
0.0 0.1 0.0
0.4 0.1 0.0
0.8 0.1 0.0
1.2000000000000002 0.1 0.0
1.6 0.1 0.0
2.0 0.1 0.0
2.4000000000000004 0.1 0.0
2.8000000000000003 0.1 0.0
3.2 0.1 0.0
3.6 0.1 0.0
4.0 0.1 0.0
4.4 0.1 0.0
4.800000000000001 0.1 0.0
5.2 0.1 0.0
5.6000000000000005 0.1 0.0
6.0 0.1 0.0
6.4 0.1 0.0
6.800000000000001 0.1 0.0
7.2 0.1 0.0
7.6000000000000005 0.1 0.0
8.0 0.1 0.0
8.4 0.1 0.0
8.8 0.1 0.0
9.200000000000001 0.1 0.0
9.600000000000001 0.1 0.0
10.0 0.1 0.0
10.4 0.1 0.0
10.8 0.1 0.0
11.200000000000001 0.1 0.0
11.600000000000001 0.1 0.0
12.0 0.1 0.0
12.4 0.1 0.0
12.8 0.1 0.0
13.200000000000001 0.1 0.0
13.600000000000001 0.1 0.0
14.0 0.1 0.0
14.4 0.1 0.0
14.8 0.1 0.0
15.200000000000001 0.1 0.0
15.600000000000001 0.1 0.0
16.0 0.1 0.0
0.0 0.2 0.0
0.4 0.2 0.0
0.8 0.2 0.0
1.2000000000000002 0.2 0.0
1.6 0.2 0.0
2.0 0.2 0.0
2.4000000000000004 0.2 0.0
2.8000000000000003 0.2 0.0
3.2 0.2 0.0
3.6 0.2 0.0
4.0 0.2 0.0
4.4 0.2 0.0
4.800000000000001 0.2 0.0
5.2 0.2 0.0
5.6000000000000005 0.2 0.0
6.0 0.2 0.0
6.4 0.2 0.0
6.800000000000001 0.2 0.0
7.2 0.2 0.0
7.6000000000000005 0.2 0.0
8.0 0.2 0.0
8.4 0.2 0.0
8.8 0.2 0.0
9.200000000000001 0.2 0.0
9.600000000000001 0.2 0.0
10.0 0.2 0.0
10.4 0.2 0.0
10.8 0.2 0.0
11.200000000000001 0.2 0.0
11.600000000000001 0.2 0.0
12.0 0.2 0.0
12.4 0.2 0.0
12.8 0.2 0.0
13.200000000000001 0.2 0.0
13.600000000000001 0.2 0.0
14.0 0.2 0.0
14.4 0.2 0.0
14.8 0.2 0.0
15.200000000000001 0.2 0.0
15.600000000000001 0.2 0.0
16.0 0.2 0.0
0.0 0.30000000000000004 0.0
0.4 0.30000000000000004 0.0
0.8 0.30000000000000004 0.0
1.2000000000000002 0.30000000000000004 0.0
1.6 0.30000000000000004 0.0
2.0 0.30000000000000004 0.0
2.4000000000000004 0.30000000000000004 0.0
2.8000000000000003 0.30000000000000004 0.0
3.2 0.30000000000000004 0.0
3.6 0.30000000000000004 0.0
4.0 0.30000000000000004 0.0
4.4 0.30000000000000004 0.0
4.800000000000001 0.30000000000000004 0.0
5.2 0.30000000000000004 0.0
5.6000000000000005 0.30000000000000004 0.0
6.0 0.30000000000000004 0.0
6.4 0.30000000000000004 0.0
6.800000000000001 0.30000000000000004 0.0
7.2 0.30000000000000004 0.0
7.6000000000000005 0.30000000000000004 0.0
8.0 0.30000000000000004 0.0
8.4 0.30000000000000004 0.0
8.8 0.30000000000000004 0.0
9.200000000000001 0.30000000000000004 0.0
9.600000000000001 0.30000000000000004 0.0
10.0 0.30000000000000004 0.0
10.4 0.30000000000000004 0.0
10.8 0.30000000000000004 0.0
11.200000000000001 0.30000000000000004 0.0
11.600000000000001 0.30000000000000004 0.0
12.0 0.30000000000000004 0.0
12.4 0.30000000000000004 0.0
12.8 0.30000000000000004 0.0
13.200000000000001 0.30000000000000004 0.0
13.600000000000001 0.30000000000000004 0.0
14.0 0.30000000000000004 0.0
14.4 0.30000000000000004 0.0
14.8 0.30000000000000004 0.0
15.200000000000001 0.30000000000000004 0.0
15.600000000000001 0.30000000000000004 0.0
16.0 0.30000000000000004 0.0
0.0 0.4 0.0
0.4 0.4 0.0
0.8 0.4 0.0
1.2000000000000002 0.4 0.0
1.6 0.4 0.0
2.0 0.4 0.0
2.4000000000000004 0.4 0.0
2.8000000000000003 0.4 0.0
3.2 0.4 0.0
3.6 0.4 0.0
4.0 0.4 0.0
4.4 0.4 0.0
4.800000000000001 0.4 0.0
5.2 0.4 0.0
5.6000000000000005 0.4 0.0
6.0 0.4 0.0
6.4 0.4 0.0
6.800000000000001 0.4 0.0
7.2 0.4 0.0
7.6000000000000005 0.4 0.0
8.0 0.4 0.0
8.4 0.4 0.0
8.8 0.4 0.0
9.200000000000001 0.4 0.0
9.600000000000001 0.4 0.0
10.0 0.4 0.0
10.4 0.4 0.0
10.8 0.4 0.0
11.200000000000001 0.4 0.0
11.600000000000001 0.4 0.0
12.0 0.4 0.0
12.4 0.4 0.0
12.8 0.4 0.0
13.200000000000001 0.4 0.0
13.600000000000001 0.4 0.0
14.0 0.4 0.0
14.4 0.4 0.0
14.8 0.4 0.0
15.200000000000001 0.4 0.0
15.600000000000001 0.4 0.0
16.0 0.4 0.0
0.0 0.5 0.0
0.4 0.5 0.0
0.8 0.5 0.0
1.2000000000000002 0.5 0.0
1.6 0.5 0.0
2.0 0.5 0.0
2.4000000000000004 0.5 0.0
2.8000000000000003 0.5 0.0
3.2 0.5 0.0
3.6 0.5 0.0
4.0 0.5 0.0
4.4 0.5 0.0
4.800000000000001 0.5 0.0
5.2 0.5 0.0
5.6000000000000005 0.5 0.0
6.0 0.5 0.0
6.4 0.5 0.0
6.800000000000001 0.5 0.0
7.2 0.5 0.0
7.6000000000000005 0.5 0.0
8.0 0.5 0.0
8.4 0.5 0.0
8.8 0.5 0.0
9.200000000000001 0.5 0.0
9.600000000000001 0.5 0.0
10.0 0.5 0.0
10.4 0.5 0.0
10.8 0.5 0.0
11.200000000000001 0.5 0.0
11.600000000000001 0.5 0.0
12.0 0.5 0.0
12.4 0.5 0.0
12.8 0.5 0.0
13.200000000000001 0.5 0.0
13.600000000000001 0.5 0.0
14.0 0.5 0.0
14.4 0.5 0.0
14.8 0.5 0.0
15.200000000000001 0.5 0.0
15.600000000000001 0.5 0.0
16.0 0.5 0.0
0.0 0.6000000000000001 0.0
0.4 0.6000000000000001 0.0
0.8 0.6000000000000001 0.0
1.2000000000000002 0.6000000000000001 0.0
1.6 0.6000000000000001 0.0
2.0 0.6000000000000001 0.0
2.4000000000000004 0.6000000000000001 0.0
2.8000000000000003 0.6000000000000001 0.0
3.2 0.6000000000000001 0.0
3.6 0.6000000000000001 0.0
4.0 0.6000000000000001 0.0
4.4 0.6000000000000001 0.0
4.800000000000001 0.6000000000000001 0.0
5.2 0.6000000000000001 0.0
5.6000000000000005 0.6000000000000001 0.0
6.0 0.6000000000000001 0.0
6.4 0.6000000000000001 0.0
6.800000000000001 0.6000000000000001 0.0
7.2 0.6000000000000001 0.0
7.6000000000000005 0.6000000000000001 0.0
8.0 0.6000000000000001 0.0
8.4 0.6000000000000001 0.0
8.8 0.6000000000000001 0.0
9.200000000000001 0.6000000000000001 0.0
9.600000000000001 0.6000000000000001 0.0
10.0 0.6000000000000001 0.0
10.4 0.6000000000000001 0.0
10.8 0.6000000000000001 0.0
11.200000000000001 0.6000000000000001 0.0
11.600000000000001 0.6000000000000001 0.0
12.0 0.6000000000000001 0.0
12.4 0.6000000000000001 0.0
12.8 0.6000000000000001 0.0
13.200000000000001 0.6000000000000001 0.0
13.600000000000001 0.6000000000000001 0.0
14.0 0.6000000000000001 0.0
14.4 0.6000000000000001 0.0
14.8 0.6000000000000001 0.0
15.200000000000001 0.6000000000000001 0.0
15.600000000000001 0.6000000000000001 0.0
16.0 0.6000000000000001 0.0
0.0 0.7000000000000001 0.0
0.4 0.7000000000000001 0.0
0.8 0.7000000000000001 0.0
1.2000000000000002 0.7000000000000001 0.0
1.6 0.7000000000000001 0.0
2.0 0.7000000000000001 0.0
2.4000000000000004 0.7000000000000001 0.0
2.8000000000000003 0.7000000000000001 0.0
3.2 0.7000000000000001 0.0
3.6 0.7000000000000001 0.0
4.0 0.7000000000000001 0.0
4.4 0.7000000000000001 0.0
4.800000000000001 0.7000000000000001 0.0
5.2 0.7000000000000001 0.0
5.6000000000000005 0.7000000000000001 0.0
6.0 0.7000000000000001 0.0
6.4 0.7000000000000001 0.0
6.800000000000001 0.7000000000000001 0.0
7.2 0.7000000000000001 0.0
7.6000000000000005 0.7000000000000001 0.0
8.0 0.7000000000000001 0.0
8.4 0.7000000000000001 0.0
8.8 0.7000000000000001 0.0
9.200000000000001 0.7000000000000001 0.0
9.600000000000001 0.7000000000000001 0.0
10.0 0.7000000000000001 0.0
10.4 0.7000000000000001 0.0
10.8 0.7000000000000001 0.0
11.200000000000001 0.7000000000000001 0.0
11.600000000000001 0.7000000000000001 0.0
12.0 0.7000000000000001 0.0
12.4 0.7000000000000001 0.0
12.8 0.7000000000000001 0.0
13.200000000000001 0.7000000000000001 0.0
13.600000000000001 0.7000000000000001 0.0
14.0 0.7000000000000001 0.0
14.4 0.7000000000000001 0.0
14.8 0.7000000000000001 0.0
15.200000000000001 0.7000000000000001 0.0
15.600000000000001 0.7000000000000001 0.0
16.0 0.7000000000000001 0.0
0.0 0.8 0.0
0.4 0.8 0.0
0.8 0.8 0.0
1.2000000000000002 0.8 0.0
1.6 0.8 0.0
2.0 0.8 0.0
2.4000000000000004 0.8 0.0
2.8000000000000003 0.8 0.0
3.2 0.8 0.0
3.6 0.8 0.0
4.0 0.8 0.0
4.4 0.8 0.0
4.800000000000001 0.8 0.0
5.2 0.8 0.0
5.6000000000000005 0.8 0.0
6.0 0.8 0.0
6.4 0.8 0.0
6.800000000000001 0.8 0.0
7.2 0.8 0.0
7.6000000000000005 0.8 0.0
8.0 0.8 0.0
8.4 0.8 0.0
8.8 0.8 0.0
9.200000000000001 0.8 0.0
9.600000000000001 0.8 0.0
10.0 0.8 0.0
10.4 0.8 0.0
10.8 0.8 0.0
11.200000000000001 0.8 0.0
11.600000000000001 0.8 0.0
12.0 0.8 0.0
12.4 0.8 0.0
12.8 0.8 0.0
13.200000000000001 0.8 0.0
13.600000000000001 0.8 0.0
14.0 0.8 0.0
14.4 0.8 0.0
14.8 0.8 0.0
15.200000000000001 0.8 0.0
15.600000000000001 0.8 0.0
16.0 0.8 0.0
0.0 0.9 0.0
0.4 0.9 0.0
0.8 0.9 0.0
1.2000000000000002 0.9 0.0
1.6 0.9 0.0
2.0 0.9 0.0
2.4000000000000004 0.9 0.0
2.8000000000000003 0.9 0.0
3.2 0.9 0.0
3.6 0.9 0.0
4.0 0.9 0.0
4.4 0.9 0.0
4.800000000000001 0.9 0.0
5.2 0.9 0.0
5.6000000000000005 0.9 0.0
6.0 0.9 0.0
6.4 0.9 0.0
6.800000000000001 0.9 0.0
7.2 0.9 0.0
7.6000000000000005 0.9 0.0
8.0 0.9 0.0
8.4 0.9 0.0
8.8 0.9 0.0
9.200000000000001 0.9 0.0
9.600000000000001 0.9 0.0
10.0 0.9 0.0
10.4 0.9 0.0
10.8 0.9 0.0
11.200000000000001 0.9 0.0
11.600000000000001 0.9 0.0
12.0 0.9 0.0
12.4 0.9 0.0
12.8 0.9 0.0
13.200000000000001 0.9 0.0
13.600000000000001 0.9 0.0
14.0 0.9 0.0
14.4 0.9 0.0
14.8 0.9 0.0
15.200000000000001 0.9 0.0
15.600000000000001 0.9 0.0
16.0 0.9 0.0
0.0 1.0 0.0
0.4 1.0 0.0
0.8 1.0 0.0
1.2000000000000002 1.0 0.0
1.6 1.0 0.0
2.0 1.0 0.0
2.4000000000000004 1.0 0.0
2.8000000000000003 1.0 0.0
3.2 1.0 0.0
3.6 1.0 0.0
4.0 1.0 0.0
4.4 1.0 0.0
4.800000000000001 1.0 0.0
5.2 1.0 0.0
5.6000000000000005 1.0 0.0
6.0 1.0 0.0
6.4 1.0 0.0
6.800000000000001 1.0 0.0
7.2 1.0 0.0
7.6000000000000005 1.0 0.0
8.0 1.0 0.0
8.4 1.0 0.0
8.8 1.0 0.0
9.200000000000001 1.0 0.0
9.600000000000001 1.0 0.0
10.0 1.0 0.0
10.4 1.0 0.0
10.8 1.0 0.0
11.200000000000001 1.0 0.0
11.600000000000001 1.0 0.0
12.0 1.0 0.0
12.4 1.0 0.0
12.8 1.0 0.0
13.200000000000001 1.0 0.0
13.600000000000001 1.0 0.0
14.0 1.0 0.0
14.4 1.0 0.0
14.8 1.0 0.0
15.200000000000001 1.0 0.0
15.600000000000001 1.0 0.0
16.0 1.0 0.0
0.0 1.1 0.0
0.4 1.1 0.0
0.8 1.1 0.0
1.2000000000000002 1.1 0.0
1.6 1.1 0.0
[...]
POINT_DATA 861
SCALARS Disp float 2
LOOKUP_TABLE default
0.0 0.0
0.012926529800430712 -0.23624200074135937
0.023024257431342558 -0.43585792303836973
0.031123997991706426 -0.6320474243308285
0.040377630594695964 -0.824463581832946
0.051506763345446877 -1.0130208342201754
0.06486626111431179 -1.1968181383264165
0.08059854474796416 -1.3748819852807823
0.09875023585283635 -1.546206394364786
0.11933213996288933 -1.7097977532416886
0.1423426411747227 -1.8646739558406222
0.16777801421198468 -2.009861902219547
0.19563596646014206 -2.14439447667845
0.22591903576716604 -2.267309199834532
0.2586418868311683 -2.377645032526679
0.2938446780254523 -2.4744291600924875
0.3316065133268494 -2.5566392769253534
0.37203214153782005 -2.623127644030361
0.41515409740642706 -2.6725230110029736
0.46069177612577855 -2.703218153804342
0.5077449696173126 -2.713682024899487
0.5547981631088469 -2.703218153804342
0.6003358418281983 -2.6725230110029727
0.6434577976968051 -2.623127644030361
0.6838834259077756 -2.5566392769253534
0.7216452612091727 -2.474429160092487
0.7568480524034569 -2.37764503252668
0.7895709034674593 -2.267309199834531
0.8198539727744829 -2.14439447667845
0.8477119250226403 -2.009861902219546
0.8731472980599023 -1.864673955840622
0.8961577992717357 -1.7097977532416881
0.9167397033817886 -1.5462063943647857
0.9348913944866609 -1.3748819852807819
0.9506236781203133 -1.1968181383264154
0.963983175889178 -1.0130208342201756
0.9751123086399289 -0.8244635818329461
0.9843659412429187 -0.6320474243308294
0.9924656818032827 -0.43585792303836934
1.0025634094341944 -0.23624200074135857
1.015489939234625 0.0
0.05852033444245235 -0.0080276252615556
0.06656971301915117 -0.23561621958125828
0.0721410801037354 -0.4369914488310028
0.07964625858239956 -0.6328377164570991
0.0878761273865187 -0.8255048105678704
0.09792415118779742 -1.0142610793102844
0.10996430932895476 -1.1982985596885818
0.12413456482142127 -1.3766062731339503
0.14047615791081983 -1.548177833759661
0.15900176631437665 -1.7120164200025234
0.1797118409809051 -1.8671396025851419
0.20260422975757353 -2.0125742138055873
0.22767775867175333 -2.1473534208967036
0.2549354385943825 -2.270515469558561
0.2843903341171437 -2.3811010213865194
0.31607509770602177 -2.478140388648177
0.3500489155002871 -2.5606149002246346
0.38637870652575307 -2.6273759488005695
0.42504955576658476 -2.677035242048324
0.4657688783582527 -2.707938565906016
0.5077449696173126 -2.7184849895197614
0.5497210608763726 -2.707938565906016
0.5904403834680405 -2.677035242048323
0.6291112327088721 -2.6273759488005695
0.6654410237343379 -2.560614900224634
0.6994148415286033 -2.4781403886481765
0.7310996051174815 -2.38110102138652
0.7605545006402425 -2.27051546955856
0.7878121805628717 -2.147353420896703
0.8128857094770514 -2.0125742138055864
0.8357780982537198 -1.8671396025851417
0.8564881729202483 -1.712016420002523
0.8750137813238051 -1.5481778337596608
0.8913553744132037 -1.37660627313395
0.9055256299056703 -1.198298559688581
0.9175657880468275 -1.0142610793102849
0.9276138118481062 -0.8255048105678704
0.9358436806522255 -0.6328377164571
0.9433488591308896 -0.43699144883100244
0.9489202262154739 -0.2356162195812575
0.9569696047921726 -0.008027625261555607
0.1130560293460519 -0.014923136234079303
0.11882949997969833 -0.23515727324247623
0.12182797935786226 -0.43761600555817565
0.12783711948106766 -0.6336070890589888
0.13513481148561543 -0.8264062550344043
0.14402703334537875 -1.0153749507221674
0.15473874531784595 -1.1996222256075606
0.16733995625191683 -1.3781498369907008
0.18187035930585652 -1.5499420326830733
0.19833975875690762 -1.7140017465547377
0.21674982488676417 -1.869345820540784
0.23709947860759367 -2.015001134079681
0.25938827511575546 -2.1500010249596553
0.283618848767776 -2.273384248035371
0.30980109327763156 -2.3841926575025156
0.33795852335755827 -2.4814588260213246
0.3681319666624468 -2.5641668496006114
0.40036269223521703 -2.6311676933402692
0.43461958435157255 -2.6810600488991794
0.4706404634424405 -2.712150907304993
0.5077449696173126 -2.7227745150588314
0.5448494757921848 -2.712150907304993
0.5808703548830527 -2.681060048899179
0.6151272469994084 -2.631167693340269
0.6473579725721782 -2.564166849600611
0.6775314158770668 -2.4814588260213246
0.7056888459569937 -2.3841926575025156
0.7318710904668491 -2.2733842480353705
0.7561016641188696 -2.150001024959655
0.7783904606270312 -2.01500113407968
0.7987401143478607 -1.8693458205407845
0.8171501804777174 -1.7140017465547372
0.8336195799287686 -1.549942032683073
0.8481499829827082 -1.3781498369907004
0.860751193916779 -1.1996222256075595
0.8714629058892461 -1.0153749507221679
0.8803551277490095 -0.8264062550344041
0.8876528197535573 -0.6336070890589895
0.8936619598767628 -0.43761600555817526
0.8966604392549267 -0.23515727324247543
0.9024339098885731 -0.014923136234079336
0.16523734685072805 -0.020816680261029282
0.16982342468324307 -0.2350223294764109
0.1714133647144021 -0.43789258081072807
0.1758859765592196 -0.6342427726837051
0.18212607713286022 -0.8271906886092427
0.1898619828433939 -1.0163493697930475
0.1992238052588695 -1.2007897469317523
0.21025278422441676 -1.379511588228231
0.22297001288039134 -1.551499047801384
0.23738316340638402 -1.7157537517084875
0.25349340125230013 -1.871292674394512
0.2713004256824412 -2.0171426630469904
0.29080411792137173 -2.1523371403303613
0.3120060924851722 -2.275915038274979
0.3349120327741924 -2.3869188061953497
0.35953557765789473 -2.4843826032904155
0.3859014740350974 -2.5672935199243843
0.4140363606255088 -2.6345051969462245
0.4439180849492143 -2.6846106957863274
0.4753450106102007 -2.715885027657793
0.5077449696173126 -2.7265897907093963
0.5401449286244246 -2.7158850276577926
0.5715718542854108 -2.6846106957863274
0.6014535786091165 -2.6345051969462236
0.6295884651995276 -2.5672935199243843
0.6559543615767304 -2.484382603290416
0.6805779064604327 -2.3869188061953497
0.703483846749453 -2.275915038274978
0.7246858213132533 -2.1523371403303604
0.7441895135521838 -2.0171426630469895
0.7619965379823248 -1.8712926743945122
0.778106775828241 -1.7157537517084873
0.7925199263542337 -1.5514990478013837
0.8052371550102082 -1.3795115882282303
0.8162661339757554 -1.2007897469317514
0.825627956391231 -1.0163493697930481
0.8333638621017646 -0.8271906886092426
0.8396039626754054 -0.6342427726837058
0.8440765745202229 -0.4378925808107277
0.8456665145513819 -0.23502232947641014
0.8502525923838968 -0.0208166802610293
0.2159142828590368 -0.025836366008410702
0.21978503279499476 -0.23519479984070196
0.2206249066047761 -0.43797014691050196
0.2237769886962872 -0.6347125410321656
0.2288882262725938 -0.8278512218651826
0.23545462445733212 -1.0171836884857424
0.24345797843640168 -1.2017987016134624
0.25290959336066915 -1.3806913994866874
0.26381245883621807 -1.5528486639809733
0.2761689434544991 -1.7172724742487675
0.28997940275236234 -1.8729801833719681
0.30524377327501917 -2.0189987871941053
0.321961990127372 -2.1543616355859028
0.3401342091575965 -2.2781074636406595
0.35976136158092575 -2.389278681696902
0.38084713544996396 -2.4869105568186125
0.40340259234233156 -2.5699942794726662
0.42744874564586144 -2.637391318145798
0.45299172445088143 -2.687698949582269
0.4799127511753577 -2.719165824853707
0.5077449696173126 -2.7299634779118382
0.5355771880592676 -2.7191658248537065
0.5624982147837437 -2.687698949582269
0.5880411935887638 -2.6373913181457973
0.6120873468922935 -2.5699942794726662
0.6346428037846611 -2.4869105568186125
0.6557285776536993 -2.389278681696902
0.6753557300770284 -2.2781074636406586
0.693527949107253 -2.1543616355859023
0.7102461659596059 -2.0189987871941044
0.7255105364822625 -1.8729801833719681
0.739320995780126 -1.7172724742487673
0.7516774803984069 -1.552848663980973
0.7625803458739558 -1.3806913994866867
0.7720319607982233 -1.2017987016134613
0.7800353147772927 -1.017183688485743
0.786601712962031 -0.8278512218651827
0.7917129505383377 -0.6347125410321661
0.7948650326298488 -0.43797014691050157
0.7957049064396302 -0.23519479984070116
0.7995756563755881 -0.02583636600841073
0.26557512127244054 -0.030099992961756205
0.26893878564765805 -0.23560391957947238
0.269382459633708 -0.4379517045570207
0.27146677116612455 -0.635024486303494
0.27545200968643685 -0.8283798963352415
0.2808354750917027 -1.017877591665419
0.2874767348638992 -1.2026479698287547
0.2953474761793617 -1.3816888592874819
0.30443469758345776 -1.5539907903172454
0.3147340967499435 -1.718557883183633
0.32624465217415877 -1.8744083527287314
0.33896626158176607 -2.0205694804893843
0.35289867197302105 -2.1560744130697955
0.36804038025260927 -2.2799612890748433
0.38438746712578964 -2.3912718547820795
0.40193407984863344 -2.4890421490571137
0.4206796736158717 -2.572269155464623
0.4406460591440468 -2.6398287865702748
0.4618815666828958 -2.690334430650066
0.48436823059306117 -2.722013922273895
0.5077449696173125 -2.7329236651667332
0.531121708641564 -2.722013922273895
0.5536083725517292 -2.690334430650066
0.5748438800905784 -2.6398287865702748
0.5948102656187534 -2.572269155464623
0.6135558593859917 -2.4890421490571133
0.6311024721088354 -2.391271854782079
0.6474495589820156 -2.2799612890748424
0.662591267261604 -2.156074413069795
0.6765236776528589 -2.0205694804893835
0.6892452870604661 -1.8744083527287312
0.7007558424846815 -1.7185578831836328
0.7110552416511671 -1.553990790317245
0.7201424630552632 -1.3816888592874814
0.7280132043707258 -1.2026479698287535
0.7346544641429221 -1.0178775916654192
0.740037929548188 -0.8283798963352415
0.7440231680685003 -0.6350244863034945
0.746107479600917 -0.4379517045570203
0.7465511535869669 -0.23560391957947166
0.7499148179621843 -0.030099992961756205
0.314524350345409 -0.03370998990468967
0.3174725315905825 -0.23617113845726273
0.31769688781646344 -0.4378986035623429
0.31893023411396815 -0.6352016734369162
0.32183878988631925 -0.8287747956383228
0.32603709577043166 -1.0184305119954518
0.3313149421593902 -1.20333729561911
0.3376032324269522 -1.3825036469705778
0.34487370662543887 -1.5549253366520754
0.35311556091696455 -1.7196099373106373
0.3623259830612382 -1.8755771634039144
0.37250465414616674 -2.0218547150687987
0.3836509977383357 -2.1574754161744734
0.3957618572509041 -2.2814764286629656
0.4088287649668308 -2.3928982418295695
0.4228371047900288 -2.4907773911357305
0.4377762321777761 -2.5741185895897476
0.45367224714514065 -2.641819716183336
0.47062457538417 -2.692524190510257
0.4887319718811624 -2.724446151679572
0.5077449696173124 -2.735495335517097
0.5267579673534627 -2.724446151679572
0.544865363850455 -2.692524190510257
0.5618176920894844 -2.641819716183336
0.577713707056849 -2.574118589589748
0.5926528344445962 -2.490777391135731
0.6066611742677943 -2.3928982418295686
0.619728081983721 -2.2814764286629647
0.6318389414962892 -2.157475416174473
0.6429852850884581 -2.0218547150687978
0.6531639561733867 -1.8755771634039144
0.6623743783176604 -1.719609937310637
0.670616232609186 -1.554925336652075
0.6778867068076727 -1.3825036469705771
0.6841749970752347 -1.2033372956191086
0.6894528434641932 -1.0184305119954524
0.6936511493483057 -0.8287747956383228
0.6965597051206568 -0.6352016734369168
0.6977930514181616 -0.4378986035623425
0.6980174076440425 -0.23617113845726206
0.7009655888892159 -0.03370998990468966
0.36296554729558256 -0.03675247170279609
0.36553799691131494 -0.23682685173234766
0.36561998538752855 -0.43784219035189115
0.366166790454311 -0.6352692048336194
0.36806782489568973 -0.8290396317435318
0.3710918545776577 -1.0188426296053597
0.3750077092315117 -1.2038668457940729
0.3797133974610002 -1.3831356567981046
0.3851664173872745 -1.5556522171198268
0.39135023824022863 -1.7204285878854682
0.3982602247341683 -1.8764865807763
0.40589573290912095 -2.0228544638556047
0.41425582978857134 -2.1585646323740075
0.4233358949422443 -2.2826529395714017
0.43312356194547535 -2.3941580792538475
0.44359655000373804 -2.492116776481712
0.4547349818308111 -2.5755432768589075
0.46656963490883124 -2.6433652887980177
0.4792549623074735 -2.694272389829657
0.4930216441855189 -2.7264758273190055
0.5077449696173123 -2.7377015956315525
0.5224682950491062 -2.7264758273190055
0.5362349769271515 -2.6942723898296568
0.5489203043257939 -2.6433652887980177
0.5607549574038139 -2.5755432768589075
0.5718933892308868 -2.492116776481712
0.5823663772891496 -2.3941580792538475
0.5921540442923807 -2.282652939571401
0.6012341094460535 -2.1585646323740066
0.609594206325504 -2.022854463855604
0.6172297145004566 -1.8764865807763003
0.6241397009943964 -1.720428587885468
0.6303235218473504 -1.5556522171198264
0.6357765417736247 -1.3831356567981041
0.6404822300031132 -1.2038668457940715
0.6443980846569674 -1.0188426296053605
0.6474221143389353 -0.8290396317435318
0.6493231487803139 -0.6352692048336199
0.6498699538470964 -0.43784219035189076
0.64995194232331 -0.23682685173234702
0.6525243919390424 -0.03675247170279609
0.4110434060068724 -0.03929878012391136
0.41325773179382 -0.23751501765186914
0.41321979975997186 -0.43779436465221694
0.41319588945728436 -0.6352486755952802
0.41416120581867744 -0.8291815215001213
0.4160318685804807 -1.0191153591780822
0.4185904078576927 -1.2042371068927973
0.42171443576091633 -1.3835849680644272
0.4253496930084067 -1.5561713760489249
0.42947500521328097 -1.721013777957519
0.4340841977687833 -1.8771365604546155
0.4391762893834737 -2.023568702813044
0.44475003627178555 -2.1593420902478484
0.4507996932417649 -2.2834910046518933
0.45730993520483776 -2.395051884731216
0.4642522519026343 -2.4930612289498075
0.4715978994553493 -2.576544096699327
0.4793796075103506 -2.6444655960203716
0.4878054458184785 -2.6955800079794225
0.49725296148609244 -2.728112793605297
0.5077449696173124 -2.739564830511147
0.5182369777485326 -2.7281127936052965
0.5276844934161464 -2.6955800079794225
0.5361103317242745 -2.644465596020371
0.5438920397792756 -2.5765440966993265
0.5512376873319906 -2.4930612289498084
0.5581800040297872 -2.395051884731215
0.5646902459928601 -2.283491004651893
0.5707399029628394 -2.1593420902478475
0.5763136498511512 -2.0235687028130434
0.5814057414658417 -1.8771365604546153
0.586014934021344 -1.721013777957519
0.5901402462262182 -1.5561713760489244
0.5937755034737086 -1.383584968064427
0.5968995313769322 -1.204237106892796
0.5994580706541442 -1.0191153591780828
0.6013287334159475 -0.8291815215001213
0.6022940497773407 -0.6352486755952809
0.6022701394746531 -0.4377943646522165
0.602232207440805 -0.23751501765186847
0.6044465332277525 -0.039298780123911366
0.4588665561369744 -0.04140808494540676
0.4607322152664515 -0.23819301204845955
0.46056870678452294 -0.4377553865800641
0.46005095750074165 -0.6351564805711594
0.460145875851658 -0.8292089239459874
0.46088974012802764 -1.0192512634822166
0.4620986363842202 -1.2044488885014928
0.4636428516012985 -1.3838517939834405
0.46546034594834895 -1.556482794947894
0.46752671034327714 -1.7213654462292525
0.46983471279171096 -1.8775270511908921
0.4723831165820002 -2.023997411983293
0.47517047251115063 -2.159807852191332
0.47819035198160925 -2.2839909054006444
0.4814256304379043 -2.395580404983545
0.4848433949274433 -2.4936120624757514
0.48840626225785017 -2.5771221393611268
0.49214328584361144 -2.6451196420864664
0.49630851244339724 -2.696444553246311
0.5014404657175136 -2.7293632052049728
0.5077449696173125 -2.741107916882564
0.5140494735171113 -2.7293632052049723
0.5191814267912276 -2.696444553246311
0.5233466533910135 -2.6451196420864664
0.5270836769767747 -2.5771221393611268
0.5306465443071815 -2.493612062475752
0.5340643087967206 -2.3955804049835443
0.5372995872530157 -2.283990905400644
0.5403194667234743 -2.1598078521913315
0.5431068226526248 -2.0239974119832924
0.545655226442914 -1.8775270511908921
0.5479632288913477 -1.721365446229252
0.5500295932862759 -1.5564827949478937
0.5518470876333266 -1.38385179398344
0.5533913028504047 -1.2044488885014915
0.5546001991065973 -1.0192512634822173
0.5553440633829669 -0.8292089239459876
0.5554389817338833 -0.6351564805711599
0.5549212324501019 -0.4377553865800636
0.5547577239681735 -0.23819301204845889
0.5566233830976506 -0.041408084945406765
0.5065205751701168 -0.0431302097287367
0.50804557143421 -0.2388298399316143
0.5077378945719264 -0.4377191704082181
0.5067743083308062 -0.6350039297775253
0.5060538682603326 -0.8291302206139165
0.5056992628479732 -1.0192536768303069
0.5055682878852233 -1.2045032941886809
0.5055352326677052 -1.3839364408828498
0.5055351626522171 -1.5565864847455853
0.5055421730196326 -1.7214835307499885
0.5055485687207484 -1.8776579971733955
0.5055530031329718 -2.0241405748957737
0.5055539669166846 -2.1599620042942878
0.5055448415247135 -2.2841529879263134
0.5055079861187035 -2.3957445486082865
0.5054083525621812 -2.493770941409299
0.5052005983827854 -2.577278823972559
0.504902153211467 -2.6453255306004904
0.5047977886606334 -2.6968597755929267
0.5055983341270545 -2.7302289611568136
0.5077449696173124 -2.7423556253474732
0.5098916051075704 -2.730228961156813
0.5106921505739914 -2.6968597755929262
0.5105877860231579 -2.6453255306004904
0.5102893408518394 -2.5772788239725584
0.5100815866724437 -2.493770941409299
0.5099819531159213 -2.395744548608286
0.5099450977099116 -2.284152987926313
0.5099359723179403 -2.1599620042942873
0.509936936101653 -2.0241405748957733
0.5099413705138766 -1.8776579971733953
0.5099477662149923 -1.7214835307499883
0.5099547765824078 -1.5565864847455848
0.5099547065669198 -1.3839364408828494
0.5099216513494016 -1.2045032941886795
0.5097906763866518 -1.0192536768303075
0.5094360709742924 -0.8291302206139165
0.5087156309038188 -0.6350039297775257
0.5077520446626985 -0.43771917040821756
0.5074443678004148 -0.23882983993161366
0.508969364064508 -0.043130209728736685
0.5540756208822138 -0.04450828128773435
0.555269762513262 -0.2394040036244192
0.5547950435527453 -0.43767669744245974
0.5534134731481565 -0.6347980951198792
0.5519217251273757 -0.8289529059462936
0.5504958393732597 -1.0191262596245108
0.5490356690304383 -1.204401629924901
0.5474282682320075 -1.3838392712112715
0.5456109187837674 -1.5564824725396105
0.5435581847286779 -1.721367970408101
0.5412625511153282 -1.8775293402352018
0.5387227297421804 -2.0239981767449575
0.5359373117865539 -2.1598046445858676
0.5328999899521362 -2.283977625706147
0.5295938943192761 -2.395545302998178
0.525984519430929 -2.4935398214995024
0.5220204817046001 -2.5770160932246235
0.517698556844325 -2.6450808822183824
0.5133096464776303 -2.696815425221128
0.5097413827444288 -2.7307066608548225
0.5077449696173124 -2.743336355760208
0.505748556490196 -2.730706660854822
0.5021802927569946 -2.696815425221128
0.4977913823902998 -2.645080882218382
0.4934694575300248 -2.577016093224623
0.4895054198036957 -2.493539821499502
0.4858960449153488 -2.395545302998178
0.4825899492824889 -2.2839776257061466
0.47955262744807103 -2.159804644585867
0.4767672094924445 -2.023998176744957
0.4742273881192969 -1.877529340235202
0.4719317545059471 -1.7213679704081006
0.4698790204508575 -1.5564824725396103
0.4680616710026173 -1.383839271211271
0.4664542702041866 -1.2044016299249
0.46499409986136525 -1.0191262596245112
0.4635682141072493 -0.8289529059462936
0.46207646608646846 -0.6347980951198797
0.46069489568187955 -0.43767669744245924
0.4602201767213629 -0.23940400362441855
0.46141431835241103 -0.044508281287734326
0.6015909144764717 -0.045581051643989415
0.6024674853174373 -0.23990153205079706
0.6018035728526069 -0.43761814471231336
0.6000187868069953 -0.6345428598239639
0.5977896697574513 -0.828683220359697
0.5953166125192508 -1.018872596650452
0.5925375970862363 -1.204145267744652
0.5893587577694778 -1.3835606620973915
0.5857243836214129 -1.5561707875915425
0.5816115103248702 -1.7210187048165124
0.5770134314080231 -1.8771410219944218
0.5719290684577603 -2.023570201902993
0.5663572591389185 -2.1593358703988486
0.560292483915016 -2.2834651838710847
0.5537198106435495 -2.3949836382178207
0.5466081600567743 -2.4929208423467726
0.5389040963425493 -2.5763366471576736
0.5305759382511326 -2.6443835555421114
0.521885182782957 -2.696297167355866
0.5138865325865564 -2.730785872339293