# vtk DataFile Version 3.0
Some data
ASCII
DATASET UNSTRUCTURED_GRID
POINTS 861 float
0.0 0.0 0.0
0.4 0.0 0.0
0.8 0.0 0.0
1.2000000000000002 0.0 0.0
1.6 0.0 0.0
2.0 0.0 0.0
2.4000000000000004 0.0 0.0
2.8000000000000003 0.0 0.0
3.2 0.0 0.0
3.6 0.0 0.0
4.0 0.0 0.0
4.4 0.0 0.0
4.800000000000001 0.0 0.0
5.2 0.0 0.0
5.6000000000000005 0.0 0.0
6.0 0.0 0.0
6.4 0.0 0.0
6.800000000000001 0.0 0.0
7.2 0.0 0.0
7.6000000000000005 0.0 0.0
8.0 0.0 0.0
8.4 0.0 0.0
8.8 0.0 0.0
9.200000000000001 0.0 0.0
9.600000000000001 0.0 0.0
10.0 0.0 0.0
10.4 0.0 0.0
10.8 0.0 0.0
11.200000000000001 0.0 0.0
11.600000000000001 0.0 0.0
12.0 0.0 0.0
12.4 0.0 0.0
12.8 0.0 0.0
13.200000000000001 0.0 0.0
13.600000000000001 0.0 0.0
14.0 0.0 0.0
14.4 0.0 0.0
14.8 0.0 0.0
15.200000000000001 0.0 0.0
15.600000000000001 0.0 0.0
16.0 0.0 0.0
0.0 0.1 0.0
0.4 0.1 0.0
0.8 0.1 0.0
1.2000000000000002 0.1 0.0
1.6 0.1 0.0
2.0 0.1 0.0
2.4000000000000004 0.1 0.0
2.8000000000000003 0.1 0.0
3.2 0.1 0.0
3.6 0.1 0.0
4.0 0.1 0.0
4.4 0.1 0.0
4.800000000000001 0.1 0.0
5.2 0.1 0.0
5.6000000000000005 0.1 0.0
6.0 0.1 0.0
6.4 0.1 0.0
6.800000000000001 0.1 0.0
7.2 0.1 0.0
7.6000000000000005 0.1 0.0
8.0 0.1 0.0
8.4 0.1 0.0
8.8 0.1 0.0
9.200000000000001 0.1 0.0
9.600000000000001 0.1 0.0
10.0 0.1 0.0
10.4 0.1 0.0
10.8 0.1 0.0
11.200000000000001 0.1 0.0
11.600000000000001 0.1 0.0
12.0 0.1 0.0
12.4 0.1 0.0
12.8 0.1 0.0
13.200000000000001 0.1 0.0
13.600000000000001 0.1 0.0
14.0 0.1 0.0
14.4 0.1 0.0
14.8 0.1 0.0
15.200000000000001 0.1 0.0
15.600000000000001 0.1 0.0
16.0 0.1 0.0
0.0 0.2 0.0
0.4 0.2 0.0
0.8 0.2 0.0
1.2000000000000002 0.2 0.0
1.6 0.2 0.0
2.0 0.2 0.0
2.4000000000000004 0.2 0.0
2.8000000000000003 0.2 0.0
3.2 0.2 0.0
3.6 0.2 0.0
4.0 0.2 0.0
4.4 0.2 0.0
4.800000000000001 0.2 0.0
5.2 0.2 0.0
5.6000000000000005 0.2 0.0
6.0 0.2 0.0
6.4 0.2 0.0
6.800000000000001 0.2 0.0
7.2 0.2 0.0
7.6000000000000005 0.2 0.0
8.0 0.2 0.0
8.4 0.2 0.0
8.8 0.2 0.0
9.200000000000001 0.2 0.0
9.600000000000001 0.2 0.0
10.0 0.2 0.0
10.4 0.2 0.0
10.8 0.2 0.0
11.200000000000001 0.2 0.0
11.600000000000001 0.2 0.0
12.0 0.2 0.0
12.4 0.2 0.0
12.8 0.2 0.0
13.200000000000001 0.2 0.0
13.600000000000001 0.2 0.0
14.0 0.2 0.0
14.4 0.2 0.0
14.8 0.2 0.0
15.200000000000001 0.2 0.0
15.600000000000001 0.2 0.0
16.0 0.2 0.0
0.0 0.30000000000000004 0.0
0.4 0.30000000000000004 0.0
0.8 0.30000000000000004 0.0
1.2000000000000002 0.30000000000000004 0.0
1.6 0.30000000000000004 0.0
2.0 0.30000000000000004 0.0
2.4000000000000004 0.30000000000000004 0.0
2.8000000000000003 0.30000000000000004 0.0
3.2 0.30000000000000004 0.0
3.6 0.30000000000000004 0.0
4.0 0.30000000000000004 0.0
4.4 0.30000000000000004 0.0
4.800000000000001 0.30000000000000004 0.0
5.2 0.30000000000000004 0.0
5.6000000000000005 0.30000000000000004 0.0
6.0 0.30000000000000004 0.0
6.4 0.30000000000000004 0.0
6.800000000000001 0.30000000000000004 0.0
7.2 0.30000000000000004 0.0
7.6000000000000005 0.30000000000000004 0.0
8.0 0.30000000000000004 0.0
8.4 0.30000000000000004 0.0
8.8 0.30000000000000004 0.0
9.200000000000001 0.30000000000000004 0.0
9.600000000000001 0.30000000000000004 0.0
10.0 0.30000000000000004 0.0
10.4 0.30000000000000004 0.0
10.8 0.30000000000000004 0.0
11.200000000000001 0.30000000000000004 0.0
11.600000000000001 0.30000000000000004 0.0
12.0 0.30000000000000004 0.0
12.4 0.30000000000000004 0.0
12.8 0.30000000000000004 0.0
13.200000000000001 0.30000000000000004 0.0
13.600000000000001 0.30000000000000004 0.0
14.0 0.30000000000000004 0.0
14.4 0.30000000000000004 0.0
14.8 0.30000000000000004 0.0
15.200000000000001 0.30000000000000004 0.0
15.600000000000001 0.30000000000000004 0.0
16.0 0.30000000000000004 0.0
0.0 0.4 0.0
0.4 0.4 0.0
0.8 0.4 0.0
1.2000000000000002 0.4 0.0
1.6 0.4 0.0
2.0 0.4 0.0
2.4000000000000004 0.4 0.0
2.8000000000000003 0.4 0.0
3.2 0.4 0.0
3.6 0.4 0.0
4.0 0.4 0.0
4.4 0.4 0.0
4.800000000000001 0.4 0.0
5.2 0.4 0.0
5.6000000000000005 0.4 0.0
6.0 0.4 0.0
6.4 0.4 0.0
6.800000000000001 0.4 0.0
7.2 0.4 0.0
7.6000000000000005 0.4 0.0
8.0 0.4 0.0
8.4 0.4 0.0
8.8 0.4 0.0
9.200000000000001 0.4 0.0
9.600000000000001 0.4 0.0
10.0 0.4 0.0
10.4 0.4 0.0
10.8 0.4 0.0
11.200000000000001 0.4 0.0
11.600000000000001 0.4 0.0
12.0 0.4 0.0
12.4 0.4 0.0
12.8 0.4 0.0
13.200000000000001 0.4 0.0
13.600000000000001 0.4 0.0
14.0 0.4 0.0
14.4 0.4 0.0
14.8 0.4 0.0
15.200000000000001 0.4 0.0
15.600000000000001 0.4 0.0
16.0 0.4 0.0
0.0 0.5 0.0
0.4 0.5 0.0
0.8 0.5 0.0
1.2000000000000002 0.5 0.0
1.6 0.5 0.0
2.0 0.5 0.0
2.4000000000000004 0.5 0.0
2.8000000000000003 0.5 0.0
3.2 0.5 0.0
3.6 0.5 0.0
4.0 0.5 0.0
4.4 0.5 0.0
4.800000000000001 0.5 0.0
5.2 0.5 0.0
5.6000000000000005 0.5 0.0
6.0 0.5 0.0
6.4 0.5 0.0
6.800000000000001 0.5 0.0
7.2 0.5 0.0
7.6000000000000005 0.5 0.0
8.0 0.5 0.0
8.4 0.5 0.0
8.8 0.5 0.0
9.200000000000001 0.5 0.0
9.600000000000001 0.5 0.0
10.0 0.5 0.0
10.4 0.5 0.0
10.8 0.5 0.0
11.200000000000001 0.5 0.0
11.600000000000001 0.5 0.0
12.0 0.5 0.0
12.4 0.5 0.0
12.8 0.5 0.0
13.200000000000001 0.5 0.0
13.600000000000001 0.5 0.0
14.0 0.5 0.0
14.4 0.5 0.0
14.8 0.5 0.0
15.200000000000001 0.5 0.0
15.600000000000001 0.5 0.0
16.0 0.5 0.0
0.0 0.6000000000000001 0.0
0.4 0.6000000000000001 0.0
0.8 0.6000000000000001 0.0
1.2000000000000002 0.6000000000000001 0.0
1.6 0.6000000000000001 0.0
2.0 0.6000000000000001 0.0
2.4000000000000004 0.6000000000000001 0.0
2.8000000000000003 0.6000000000000001 0.0
3.2 0.6000000000000001 0.0
3.6 0.6000000000000001 0.0
4.0 0.6000000000000001 0.0
4.4 0.6000000000000001 0.0
4.800000000000001 0.6000000000000001 0.0
5.2 0.6000000000000001 0.0
5.6000000000000005 0.6000000000000001 0.0
6.0 0.6000000000000001 0.0
6.4 0.6000000000000001 0.0
6.800000000000001 0.6000000000000001 0.0
7.2 0.6000000000000001 0.0
7.6000000000000005 0.6000000000000001 0.0
8.0 0.6000000000000001 0.0
8.4 0.6000000000000001 0.0
8.8 0.6000000000000001 0.0
9.200000000000001 0.6000000000000001 0.0
9.600000000000001 0.6000000000000001 0.0
10.0 0.6000000000000001 0.0
10.4 0.6000000000000001 0.0
10.8 0.6000000000000001 0.0
11.200000000000001 0.6000000000000001 0.0
11.600000000000001 0.6000000000000001 0.0
12.0 0.6000000000000001 0.0
12.4 0.6000000000000001 0.0
12.8 0.6000000000000001 0.0
13.200000000000001 0.6000000000000001 0.0
13.600000000000001 0.6000000000000001 0.0
14.0 0.6000000000000001 0.0
14.4 0.6000000000000001 0.0
14.8 0.6000000000000001 0.0
15.200000000000001 0.6000000000000001 0.0
15.600000000000001 0.6000000000000001 0.0
16.0 0.6000000000000001 0.0
0.0 0.7000000000000001 0.0
0.4 0.7000000000000001 0.0
0.8 0.7000000000000001 0.0
1.2000000000000002 0.7000000000000001 0.0
1.6 0.7000000000000001 0.0
2.0 0.7000000000000001 0.0
2.4000000000000004 0.7000000000000001 0.0
2.8000000000000003 0.7000000000000001 0.0
3.2 0.7000000000000001 0.0
3.6 0.7000000000000001 0.0
4.0 0.7000000000000001 0.0
4.4 0.7000000000000001 0.0
4.800000000000001 0.7000000000000001 0.0
5.2 0.7000000000000001 0.0
5.6000000000000005 0.7000000000000001 0.0
6.0 0.7000000000000001 0.0
6.4 0.7000000000000001 0.0
6.800000000000001 0.7000000000000001 0.0
7.2 0.7000000000000001 0.0
7.6000000000000005 0.7000000000000001 0.0
8.0 0.7000000000000001 0.0
8.4 0.7000000000000001 0.0
8.8 0.7000000000000001 0.0
9.200000000000001 0.7000000000000001 0.0
9.600000000000001 0.7000000000000001 0.0
10.0 0.7000000000000001 0.0
10.4 0.7000000000000001 0.0
10.8 0.7000000000000001 0.0
11.200000000000001 0.7000000000000001 0.0
11.600000000000001 0.7000000000000001 0.0
12.0 0.7000000000000001 0.0
12.4 0.7000000000000001 0.0
12.8 0.7000000000000001 0.0
13.200000000000001 0.7000000000000001 0.0
13.600000000000001 0.7000000000000001 0.0
14.0 0.7000000000000001 0.0
14.4 0.7000000000000001 0.0
14.8 0.7000000000000001 0.0
15.200000000000001 0.7000000000000001 0.0
15.600000000000001 0.7000000000000001 0.0
16.0 0.7000000000000001 0.0
0.0 0.8 0.0
0.4 0.8 0.0
0.8 0.8 0.0
1.2000000000000002 0.8 0.0
1.6 0.8 0.0
2.0 0.8 0.0
2.4000000000000004 0.8 0.0
2.8000000000000003 0.8 0.0
3.2 0.8 0.0
3.6 0.8 0.0
4.0 0.8 0.0
4.4 0.8 0.0
4.800000000000001 0.8 0.0
5.2 0.8 0.0
5.6000000000000005 0.8 0.0
6.0 0.8 0.0
6.4 0.8 0.0
6.800000000000001 0.8 0.0
7.2 0.8 0.0
7.6000000000000005 0.8 0.0
8.0 0.8 0.0
8.4 0.8 0.0
8.8 0.8 0.0
9.200000000000001 0.8 0.0
9.600000000000001 0.8 0.0
10.0 0.8 0.0
10.4 0.8 0.0
10.8 0.8 0.0
11.200000000000001 0.8 0.0
11.600000000000001 0.8 0.0
12.0 0.8 0.0
12.4 0.8 0.0
12.8 0.8 0.0
13.200000000000001 0.8 0.0
13.600000000000001 0.8 0.0
14.0 0.8 0.0
14.4 0.8 0.0
14.8 0.8 0.0
15.200000000000001 0.8 0.0
15.600000000000001 0.8 0.0
16.0 0.8 0.0
0.0 0.9 0.0
0.4 0.9 0.0
0.8 0.9 0.0
1.2000000000000002 0.9 0.0
1.6 0.9 0.0
2.0 0.9 0.0
2.4000000000000004 0.9 0.0
2.8000000000000003 0.9 0.0
3.2 0.9 0.0
3.6 0.9 0.0
4.0 0.9 0.0
4.4 0.9 0.0
4.800000000000001 0.9 0.0
5.2 0.9 0.0
5.6000000000000005 0.9 0.0
6.0 0.9 0.0
6.4 0.9 0.0
6.800000000000001 0.9 0.0
7.2 0.9 0.0
7.6000000000000005 0.9 0.0
8.0 0.9 0.0
8.4 0.9 0.0
8.8 0.9 0.0
9.200000000000001 0.9 0.0
9.600000000000001 0.9 0.0
10.0 0.9 0.0
10.4 0.9 0.0
10.8 0.9 0.0
11.200000000000001 0.9 0.0
11.600000000000001 0.9 0.0
12.0 0.9 0.0
12.4 0.9 0.0
12.8 0.9 0.0
13.200000000000001 0.9 0.0
13.600000000000001 0.9 0.0
14.0 0.9 0.0
14.4 0.9 0.0
14.8 0.9 0.0
15.200000000000001 0.9 0.0
15.600000000000001 0.9 0.0
16.0 0.9 0.0
0.0 1.0 0.0
0.4 1.0 0.0
0.8 1.0 0.0
1.2000000000000002 1.0 0.0
1.6 1.0 0.0
2.0 1.0 0.0
2.4000000000000004 1.0 0.0
2.8000000000000003 1.0 0.0
3.2 1.0 0.0
3.6 1.0 0.0
4.0 1.0 0.0
4.4 1.0 0.0
4.800000000000001 1.0 0.0
5.2 1.0 0.0
5.6000000000000005 1.0 0.0
6.0 1.0 0.0
6.4 1.0 0.0
6.800000000000001 1.0 0.0
7.2 1.0 0.0
7.6000000000000005 1.0 0.0
8.0 1.0 0.0
8.4 1.0 0.0
8.8 1.0 0.0
9.200000000000001 1.0 0.0
9.600000000000001 1.0 0.0
10.0 1.0 0.0
10.4 1.0 0.0
10.8 1.0 0.0
11.200000000000001 1.0 0.0
11.600000000000001 1.0 0.0
12.0 1.0 0.0
12.4 1.0 0.0
12.8 1.0 0.0
13.200000000000001 1.0 0.0
13.600000000000001 1.0 0.0
14.0 1.0 0.0
14.4 1.0 0.0
14.8 1.0 0.0
15.200000000000001 1.0 0.0
15.600000000000001 1.0 0.0
16.0 1.0 0.0
0.0 1.1 0.0
0.4 1.1 0.0
0.8 1.1 0.0
1.2000000000000002 1.1 0.0
1.6 1.1 0.0
[...]
POINT_DATA 861
SCALARS Disp float 2
LOOKUP_TABLE default
0.0 0.0
0.0060173895365995544 -0.2720316972887196
0.007399393083138657 -0.5345564495656285
0.008195919677436226 -0.7959741849818799
0.009241111849156927 -1.057007826107087
0.010973462571007762 -1.3172132565077965
0.014070022523617373 -1.5759957804130216
0.019365658231781525 -1.832605033169814
0.027845341093237167 -2.0861002139607954
0.04058258764605132 -2.3352502553038375
0.058645062730830755 -2.578390577244061
0.08302988243059073 -2.8133432729373835
0.11463362587326545 -3.0374545024062174
0.1542428179669413 -3.247719881905872
0.20252832815357458 -3.440873017838909
0.2599763413626468 -3.6134582226928518
0.3267664073583312 -3.7619259814978343
0.4026276577467297 -3.882785181840376
0.4867187826613737 -3.9728433568790935
0.5775824231280726 -4.029456838059284
0.672910578974329 -4.0508416288481435
0.7682387348205801 -4.029456838059156
0.8591023752872586 -3.9728433568788346
0.9431935002018697 -3.8827851818400014
1.0190547505902257 -3.7619259814973653
1.0858448165858643 -3.613458222692316
1.1432928297948899 -3.4408730178383222
1.1915783399814766 -3.2477198819052497
1.2311875320751067 -3.0374545024055806
1.2627912755177377 -2.8133432729367516
1.2871760952174587 -2.578390577243451
1.3052385703022051 -2.335250255303264
1.317975816854994 -2.0861002139602656
1.326455499716431 -1.8326050331693367
1.3317511354245823 -1.5759957804126006
1.3348476953771842 -1.3172132565074406
1.3365800460990316 -1.0570078261067954
1.3376252382707514 -0.7959741849816571
1.3384217648650487 -0.5345564495654725
1.3398037684115862 -0.272031697288634
1.3458211579481827 0.0
0.06785330297998292 -0.0024901601291593767
0.07208365401432563 -0.27231726317438576
0.0727999156635435 -0.5346192986163355
0.07350428199433358 -0.7960655921097969
0.07441748360648058 -1.057162229896239
0.07588562797403936 -1.3175630324088519
0.07854504782277015 -1.5767287695795658
0.08318387190699952 -1.8339461304639606
0.09072662992385121 -2.0883009121836653
0.10215307832674571 -2.338566768857723
0.11841574132481476 -2.583066041470937
0.1403892638980605 -2.8195992618773573
0.16886542937444865 -3.0454899499738723
0.20455876050824195 -3.257710060881611
0.24808134643736232 -3.4529614782692737
0.29988668654267336 -3.627733761771572
0.3601615578070245 -3.778389635892131
0.4286983238078113 -3.901317155136249
0.5047765467670675 -3.993176412961025
0.5870043009242764 -4.051148971050189
0.6729105789743134 -4.073097368582425
0.758816857024345 -4.051148971050059
0.841044611181535 -3.99317641296076
0.9171228341407622 -3.9013171551358656
0.985659600141512 -3.778389635891652
1.0459344714058225 -3.6277337617710255
1.0977398115110915 -3.4529614782686755
1.1412623974401697 -3.2577100608809784
1.176955728573922 -3.0454899499732244
1.2054318940502708 -2.819599261876716
1.2274054166234811 -2.5830660414703184
1.2436680796215205 -2.3385667688571425
1.255094528024392 -2.0883009121831306
1.2626372860412265 -1.8339461304634797
1.2672761101254446 -1.5767287695791425
1.2699355299741688 -1.3175630324084946
1.2714036743417247 -1.0571622298959473
1.272316875953871 -0.7960655921095741
1.273021242284661 -0.5346192986161794
1.2737375039338787 -0.2723172631742998
1.2779678549682159 -0.002490160129156874
0.1346979499227418 -0.004472976123193181
0.1378113367439106 -0.2724597915327756
0.13822014775513747 -0.5346512663712824
0.13879412005082045 -0.7961459140909025
0.13958591564880582 -1.0572844780358712
0.14081655966452034 -1.3178397610240087
0.1430500436548159 -1.577336533708405
0.14703506453008902 -1.8350979698071608
0.15362430262270424 -2.0902301202621474
0.16370666731318437 -2.3415043752185163
0.17812512259333443 -2.5872262672996653
0.19764206330022813 -2.8251754299654555
0.22294649987933207 -3.0526581528808565
0.2546692201876588 -3.2666293989326234
0.29336800653817163 -3.463763773290106
0.3394657210805636 -3.6405045575869797
0.3931676642136465 -3.793140100888532
0.45434556778522245 -3.917951763005009
0.5223864357259652 -4.011457069826323
0.5959631416081739 -4.070624761014358
0.6729105789742981 -4.093078845317507
0.7498580163404172 -4.070624761014223
0.8234347222226087 -4.0114570698260525
0.8914755901633258 -3.9179517630046177
0.95265349373487 -3.7931401008880434
1.0063554368679168 -3.640504557586423
1.0524531514102713 -3.4637637732894975
1.0911519377607461 -3.266629398931981
1.1228746580690365 -3.0526581528801997
1.1481790946481059 -2.825175429964805
1.167696035354968 -2.587226267299039
1.1821144906350916 -2.3415043752179296
1.1921968553255509 -2.090230120261608
1.198786093418151 -1.8350979698066765
1.2027711142934139 -1.57733653370798
1.205004598283704 -1.3178397610236503
1.2062352422994165 -1.0572844780355792
1.2070270378974013 -0.7961459140906795
1.2076010101930843 -0.5346512663711266
1.208009821204311 -0.2724597915326892
1.2111232080254741 -0.004472976123187942
0.20100895758102155 -0.006069152689009663
0.20336931735839514 -0.2725570743867517
0.20361806951375352 -0.5346687307357356
0.20406675436261731 -0.7962104178280427
0.2047415720805926 -1.0573830969039266
0.20576306219998283 -1.3180519319126547
0.20759538648421 -1.5778233821133751
0.21093475005238782 -1.8360615242279752
0.2165648431749084 -2.0918841016183225
0.225283853152235 -2.344056204821224
0.23783015852710307 -2.5908627768573087
0.25485826012245966 -2.830063551431621
0.276958622089375 -3.0589505323971675
0.3046771746069805 -3.2744668482045816
0.33850680777640196 -3.4732671313917134
0.37884689159083473 -3.6517576155356317
0.4259254220048545 -3.8061662369319187
0.4796917335510325 -3.93268093156358
0.5396492503550501 -4.027677118510567
0.6046654521085284 -4.0879344319424975
0.6729105789742835 -4.110899178496835
0.7411557058400332 -4.087934431942361
0.8061719075934963 -4.027677118510291
0.8661294243974912 -3.932680931563182
0.9198957359436414 -3.8061662369314226
0.9669742663576297 -3.6517576155350673
1.0073143501720296 -3.4732671313910966
1.0411439833414176 -3.27446684820393
1.0688625358589914 -3.0589505323965027
1.0909628978258765 -2.8300635514309627
1.1079909994212056 -2.590862776856676
1.1205373047960505 -2.3440562048206326
1.1292563147733587 -2.091884101617779
1.1348864078958658 -1.8360615242274883
1.138225771464035 -1.5778233821129486
1.1400580957482578 -1.3180519319122956
1.1410795858676466 -1.0573830969036344
1.1417544035856213 -0.7962104178278195
1.1422030884344854 -0.5346687307355799
1.1424518405898436 -0.27255707438666493
1.144812200367212 -0.006069152689001886
0.2670161717123672 -0.0073609453616459986
0.2688119163280547 -0.2726324339103626
0.268973977651935 -0.5346787328034422
0.2693174685809751 -0.7962603182220027
0.2698805888153323 -1.0574626800900218
0.27071750999476324 -1.3182118621300525
0.2721882103826058 -1.5781977404827883
0.2748973989048311 -1.8368398181660937
0.2795749917863562 -2.093262838045356
0.2869251038387019 -2.3462192347095647
0.29758608693110256 -2.5939713036815184
0.31210908021378453 -2.8342585504110076
0.33098552429830247 -3.0643617880836267
0.35467800063552124 -3.281216595606406
0.3836183592257262 -3.4814636953034084
0.4181692845235903 -3.661483139091804
0.4585769675033225 -3.8174562368529013
0.5048707444139378 -3.9454910258714695
0.5567089683317016 -4.0418382322771675
0.6132155932695633 -4.10311589781688
0.672910578974269 -4.126619918049872
0.7326055646789694 -4.103115897816741
0.7891121896168176 -4.041838232276888
0.8409504135345616 -3.9454910258710654
0.887244190445153 -3.8174562368523985
0.9276518734248581 -3.661483139091232
0.9622027987226935 -3.4814636953027844
0.99114315731287 -3.2812165956057475
1.0148356336500615 -3.0643617880829543
1.0337120777345536 -2.834258550410343
1.0482350710172121 -2.5939713036808802
1.0588960541095929 -2.3462192347089683
1.0662461661619231 -2.0932628380448084
1.0709237590434364 -1.836839818165604
1.0736329475656545 -1.5781977404823604
1.0751036479534937 -1.3182118621296932
1.0759405691329238 -1.057462680089729
1.0765036893672808 -0.7962603182217798
1.0768471802963209 -0.5346787328032868
1.077009241620201 -0.2726324339102755
1.0788049862358842 -0.007360945361635981
0.33282303891610804 -0.008400280799803228
0.3341741618321978 -0.272693847459814
0.33428601190030244 -0.5346859846733509
0.33454304368448917 -0.7962973312125669
0.3349982409146889 -1.0575268273631244
0.3356738020507769 -1.3183308115245391
0.33682158997817846 -1.578473425185695
0.3389439177406554 -1.837439222740216
0.3426815422780027 -2.094369425785387
0.34867086086448634 -2.347994470257988
0.35744799934934895 -2.596551305814908
0.36946356270436326 -2.837759443354228
0.38511321691182315 -3.068890423663308
0.40477495490543397 -3.2868766432607703
0.42881601094925104 -3.488351241605536
0.4575678416336601 -3.669675893767946
0.49127532249323497 -3.8269988326008004
0.530038145985244 -3.956368523802512
0.5737031733261126 -4.053937732278141
0.6216977106079139 -4.116188476886636
0.6729105789742543 -4.140277602145419
0.7241234473405901 -4.116188476886496
0.7721179846223793 -4.0539377322778565
0.8157830119632311 -3.956368523802103
0.8545458354552203 -3.826998832600292
0.8882533163147719 -3.669675893767367
0.9170051469991567 -3.4883512416049047
0.9410462030429503 -3.2868766432601055
0.9607079410365386 -3.0688904236626295
0.9763575952439771 -2.837759443353558
0.9883731585989718 -2.5965513058142653
0.997150297083818 -2.3479944702573876
1.0031396156702883 -2.094369425784837
1.006877240207626 -1.8374392227397247
1.0089995679700976 -1.578473425185266
1.0101473558974967 -1.3183308115241794
1.0108229170335838 -1.057526827362832
1.0112781142637837 -0.7962973312123438
1.0115351460479702 -0.5346859846731954
1.0116469961160748 -0.2726938474597267
1.0129981190321613 -0.008400280799791273
0.39848354121176305 -0.009226850310283611
0.39947998585388184 -0.27274445922900564
0.3995595337694598 -0.5346928581724931
0.3997432686027978 -0.7963229477341982
0.4000927510782573 -1.0575776462905655
0.40062401094024186 -1.318418463731968
0.40148662428578424 -1.5786671095654172
0.4030731635477297 -1.8378747254605268
0.4059149097341117 -2.095210764679939
0.4105623417217871 -2.3493866606146105
0.41747176271155245 -2.5986064673739793
0.42699287683895876 -2.840569282247903
0.4394274105659107 -3.072539393266611
0.45507005969122566 -3.291449701225353
0.4742232744624857 -3.49393138163206
0.4971773668335262 -3.6763356032779737
0.5241728868571554 -3.8347876337068483
0.5553640451428703 -3.9652998221098072
0.5907808442887958 -4.063963473527745
0.6301953709667493 -4.127152840150703
0.6729105789742393 -4.151888199039421
0.7156257869817257 -4.1271528401505595
0.7550403136596688 -4.063963473527458
0.7904571128055805 -3.9652998221093942
0.8216482710912791 -3.8347876337063345
0.8486437911148895 -3.6763356032773893
0.87159788348591 -3.4939313816314246
0.8907510982571514 -3.291449701224683
0.9063937473824488 -3.072539393265928
0.9188282811093841 -2.840569282247228
0.9283493952367743 -2.5986064673733322
0.9352588162265266 -2.3493866606140066
0.9399062482141916 -2.0952107646793867
0.9427479944005662 -1.8378747254600338
0.9443345336625076 -1.5786671095649878
0.9451971470080482 -1.318418463731608
0.9457284068700323 -1.0575776462902733
0.9460778893454919 -0.7963229477339752
0.94626162417883 -0.5346928581723375
0.9463411720944077 -0.27274445922891816
0.9473376167365238 -0.009226850310270103
0.4640335668629451 -0.009872643224503918
0.4647472344041507 -0.27278665276328357
0.46480228013684644 -0.5346998506752486
0.4649201003003062 -0.7963384432949818
0.4651653669260302 -1.057615391984778
0.4655598668931072 -1.3184824219618811
0.4661776001016609 -1.5787951376636977
0.4672814893427177 -1.8381667547575185
0.46928987137198597 -2.095802660684712
0.47264417156113575 -2.3504053635242594
0.47771546709482265 -2.6001446470553375
0.4847683361978524 -2.84269556677192
0.4940163648241215 -3.0753165313283963
0.5056693845025628 -3.2949434601314715
0.5199599127826157 -3.498211005008701
0.537137422033903 -3.681466912519162
0.5574314017356544 -3.8408221492784707
0.5810248602901913 -3.9722734836025917
0.6081043029778422 -4.071893300692705
0.6388028466567919 -4.1359892397772855
0.6729105789742239 -4.161446889197288
0.7070183112916535 -4.135989239777141
0.737716854970595 -4.071893300692415
0.7647962976582349 -3.9722734836021747
0.7883897562127591 -3.8408221492779533
0.8086837359144962 -3.6814669125185735
0.8258612451657681 -3.498211005008061
0.8401517734458073 -3.2949434601307983
0.851804793124236 -3.0753165313277093
0.8610528217504925 -2.8426955667712415
0.8681056908535104 -2.600144647054688
0.8731769863871875 -2.3504053635236533
0.8765312865763297 -2.0958026606841584
0.8785396686055928 -1.8381667547570246
0.8796435578466468 -1.5787951376632676
0.8802612910551996 -1.3184824219615217
0.8806557910222764 -1.0576153919844857
0.8809010576480003 -0.796338443294759
0.88101887781146 -0.5346998506750927
0.8810739235441557 -0.27278665276319597
0.8817875910853593 -0.009872643224489146
0.5294952719406104 -0.010367602153857888
0.5299923889388253 -0.27282257562558637
0.5300213961986379 -0.5347061311028861
0.5300768691528764 -0.7963448280183135
0.5302202758602084 -1.057639422226248
0.530476770844972 -1.318526919005312
0.5308789258283577 -1.5788747166834018
0.5315636266018118 -1.8383400645201975
0.5328123318264425 -2.0961700020893423
0.5349477596558333 -2.351069618853957
0.538238344338015 -2.6011798192679834
0.5428681811635061 -2.8441513483530305
0.5489714497978709 -3.0772353194295676
0.5566802892539585 -3.297371763105619
0.566153503883168 -3.501202588290788
0.5775880291813354 -3.68508019672597
0.591205119238271 -3.8451102773320196
0.6072152168054987 -3.9772841577969
0.6258720780483844 -4.077696873544483
0.6476389611200639 -4.142654658212056
0.672910578974208 -4.168925460449344
0.6981821968283508 -4.142654658211909
0.7199490799000247 -4.077696873544191
0.7386059411429023 -3.977284157796481
0.7546160387101211 -3.8451102773315
0.7682331287670469 -3.685080196725379
0.7796676540652039 -3.501202588290145
0.7891408686944051 -3.2973717631049424
0.7968497081504845 -3.077235319428878
0.8029529767848416 -2.84415134835235
0.807582813610325 -2.6011798192673314
0.8108733982925003 -2.351069618853349
0.8130088261218863 -2.0961700020887872
0.8142575313465138 -1.838340064519703
0.8149422321199663 -1.5788747166829717
0.8153443871033516 -1.318526919004952
0.8156008820881151 -1.0576394222259557
0.8157442887954469 -0.7963448280180907
0.8157997617496855 -0.5347061311027302
0.8158287690094981 -0.2728225756254988
0.8163258860077116 -0.010367602153842106
0.5948845812033535 -0.010741620415332984
0.5952255569915905 -0.2728549195730668
0.5952235358477782 -0.5347098799297263
0.5952177092512582 -0.7963428546819608
0.5952620564656558 -1.0576494411514905
0.5953767868891119 -1.3185522452044227
0.595574517513376 -1.57891917132772
0.5959019229488436 -1.8384247068282085
0.5964799623709358 -2.0963490581408326
0.5974930210388415 -2.3514122061260974
0.599088166890263 -2.601738790486642
0.6013656129092574 -2.8449597093805354
0.6043828426520828 -3.078317776317238
0.6082042732391082 -3.298757385387322
0.6129189146168006 -3.502928121044839
0.6186590692071219 -3.687193392041949
0.6256227965035384 -3.847667353250118
0.634071250048107 -3.980343759924699
0.6443078201089284 -4.081349298467194
0.6568858338721064 -4.1470784332547
0.6729105789741919 -4.174262441421655
0.6889353240762761 -4.1470784332545545
0.701513337839452 -4.081349298466902
0.7117499079002685 -3.9803437599242777
0.7201983614448317 -3.847667353249596
0.7271620887412433 -3.687193392041356
0.7329022433315597 -3.502928121044194
0.737616884709249 -3.2987573853866445
0.7414383152962712 -3.0783177763165472
0.7444555450390931 -2.8449597093798533
0.7467329910580843 -2.6017387904859888
0.7483281369095031 -2.3514122061254885
0.7493411955774066 -2.096349058140277
0.7499192349994976 -1.8384247068277138
0.7502466404349645 -1.5789191713272897
0.7504443710592285 -1.3185522452040628
0.7505591014826847 -1.0576494411511983
0.7506034486970822 -0.7963428546817377
0.7505976221005622 -0.5347098799295705
0.7505956009567497 -0.27285491957297925
0.7509365767449859 -0.010741620415316504
0.6602189873625693 -0.011020699279964212
0.6604497864729774 -0.2728867731747836
0.6604137731895885 -0.5347091485606781
0.6603471905646636 -0.7963329910096192
0.6602949987403441 -1.057645540241763
0.6602681795750586 -1.3185575615973968
0.6602577724326485 -1.578933123386218
0.660254027684545 -1.8384498421178792
0.6602525884040361 -2.096395607808746
0.6602524699209199 -2.351498490258238
0.6602525828671123 -2.6018819534306408
0.6602510494685767 -2.845174554700081
0.6602417486662923 -3.078615278354667
0.660222217677731 -3.2991498431122444
0.6602092878755902 -3.5034350740054157
0.6602735575538491 -3.687848700497113
0.6605854961798185 -3.848528168664424
0.6614641637693601 -3.981491706360577
0.6633507812814281 -4.082880984536996
0.6667372349062126 -4.149192058822061
0.6729105789741749 -4.177353261807878
0.6790839230421375 -4.1491920588219156
0.6824703766669213 -4.082880984536702
0.684356994178988 -3.9814917063601545
0.6852356617685291 -3.8485281686639023
0.6855476003944998 -3.6878487004965197
0.6856118700727591 -3.5034350740047713
0.6855989402706195 -3.2991498431115662
0.6855794092820601 -3.0786152783539764
0.6855701084797772 -2.8451745546993985
0.6855685750812431 -2.6018819534299875
0.6855686880274363 -2.3514984902576286
0.6855685695443205 -2.0963956078081902
0.6855671302638119 -1.838449842117384
0.6855633855157085 -1.578933123385788
0.6855529783732984 -1.3185575615970373
0.6855261592080131 -1.0576455402414706
0.6854739673836937 -0.7963329910093963
0.6854073847587688 -0.5347091485605224
0.6853713714753799 -0.2728867731746962
0.6856021705857877 -0.01102069927994722
0.7255097024212677 -0.011230365714937702
0.725664142433312 -0.27291885698198326
0.7255965192723847 -0.5347032000847257
0.7254704761119867 -0.7963154043406927
0.7253244444175232 -1.0576281093003734
0.7251582625300539 -1.318542621012682
0.7249402423132064 -1.5789166345160546
0.7246050717498704 -1.8384239280045203
0.7240246953775 -2.0963488577897733
0.723011838527914 -2.3514122129966455
0.7214171983900417 -2.6017386585397624
0.7191351797337076 -2.844957230815765
0.7160986026936393 -3.078310812196328
0.7122393637931315 -3.2987479093215537
0.7075034985370806 -3.5029337921247055
0.7018980821071082 -3.687266239543512
0.6955507095484116 -3.8479157644489304
0.688772765886179 -3.980944611966964
0.6820492715714328 -4.082499350438392
0.6760793863546447 -4.149110674751004
0.6729105789741578 -4.178292333197321
0.66974177159367 -4.149110674750858
0.6637718863768823 -4.082499350438098
0.65704839206214 -3.980944611966542
0.6502704483999134 -3.8479157644484085
0.6439230758412239 -3.687266239542919
0.6383176594112572 -3.502933792124061
0.6335817941552124 -3.298747909320877
0.629722555254711 -3.0783108121956384
0.6266859782146496 -2.844957230815084
0.6244039595583214 -2.60173865853911
0.6228093194204539 -2.3514122129960366
0.6217964625708708 -2.0963488577892178
0.621216086198502 -1.838423928004025
0.620880915635167 -1.5789166345156245
0.62066289541832 -1.3185426210123223
0.6204967135308509 -1.0576281093000814
0.6203506818363876 -0.7963154043404698
0.6202246386759896 -0.53470320008457
0.6201570155150624 -0.27291885698189583
0.6203114555271065 -0.011230365714920445
0.7907682140136268 -0.011390134279772935
0.7908713677752762 -0.27294948247849454
0.7907755702611545 -0.5346924011430535
0.7905929577402209 -0.7962902470795536
0.7903564574717382 -1.0575977549332352
0.7900546290740909 -1.3185078788098137
0.7896326350619748 -1.578869445330876
0.7889408789526763 -1.838338313493287
0.7876913880982155 -2.0961696972661654
0.785557290905781 -2.3510697954443582
0.7822665336131739 -2.6011791508743554
0.7776312833324175 -2.844146013257819
0.7715109973578622 -3.077221288506366
0.7637712104868123 -3.2973534315726565
0.7542860135743938 -3.501215914182592
0.7429892378180841 -3.6852295459799245
0.7299597822653195 -3.8456064919642197
0.7154880030969804 -3.978461295934554
0.700142587588514 -4.079998455332875
0.6851252966433946 -4.146950600516404
0.6729105789741414 -4.177255773475786
0.6606958613048878 -4.1469506005162575
0.6456785703597707 -4.079998455332582
0.6303331548513115 -3.978461295934134