# vtk DataFile Version 3.0
Some data
ASCII
DATASET UNSTRUCTURED_GRID
POINTS 861 float
0.0 0.0 0.0
0.4 0.0 0.0
0.8 0.0 0.0
1.2000000000000002 0.0 0.0
1.6 0.0 0.0
2.0 0.0 0.0
2.4000000000000004 0.0 0.0
2.8000000000000003 0.0 0.0
3.2 0.0 0.0
3.6 0.0 0.0
4.0 0.0 0.0
4.4 0.0 0.0
4.800000000000001 0.0 0.0
5.2 0.0 0.0
5.6000000000000005 0.0 0.0
6.0 0.0 0.0
6.4 0.0 0.0
6.800000000000001 0.0 0.0
7.2 0.0 0.0
7.6000000000000005 0.0 0.0
8.0 0.0 0.0
8.4 0.0 0.0
8.8 0.0 0.0
9.200000000000001 0.0 0.0
9.600000000000001 0.0 0.0
10.0 0.0 0.0
10.4 0.0 0.0
10.8 0.0 0.0
11.200000000000001 0.0 0.0
11.600000000000001 0.0 0.0
12.0 0.0 0.0
12.4 0.0 0.0
12.8 0.0 0.0
13.200000000000001 0.0 0.0
13.600000000000001 0.0 0.0
14.0 0.0 0.0
14.4 0.0 0.0
14.8 0.0 0.0
15.200000000000001 0.0 0.0
15.600000000000001 0.0 0.0
16.0 0.0 0.0
0.0 0.1 0.0
0.4 0.1 0.0
0.8 0.1 0.0
1.2000000000000002 0.1 0.0
1.6 0.1 0.0
2.0 0.1 0.0
2.4000000000000004 0.1 0.0
2.8000000000000003 0.1 0.0
3.2 0.1 0.0
3.6 0.1 0.0
4.0 0.1 0.0
4.4 0.1 0.0
4.800000000000001 0.1 0.0
5.2 0.1 0.0
5.6000000000000005 0.1 0.0
6.0 0.1 0.0
6.4 0.1 0.0
6.800000000000001 0.1 0.0
7.2 0.1 0.0
7.6000000000000005 0.1 0.0
8.0 0.1 0.0
8.4 0.1 0.0
8.8 0.1 0.0
9.200000000000001 0.1 0.0
9.600000000000001 0.1 0.0
10.0 0.1 0.0
10.4 0.1 0.0
10.8 0.1 0.0
11.200000000000001 0.1 0.0
11.600000000000001 0.1 0.0
12.0 0.1 0.0
12.4 0.1 0.0
12.8 0.1 0.0
13.200000000000001 0.1 0.0
13.600000000000001 0.1 0.0
14.0 0.1 0.0
14.4 0.1 0.0
14.8 0.1 0.0
15.200000000000001 0.1 0.0
15.600000000000001 0.1 0.0
16.0 0.1 0.0
0.0 0.2 0.0
0.4 0.2 0.0
0.8 0.2 0.0
1.2000000000000002 0.2 0.0
1.6 0.2 0.0
2.0 0.2 0.0
2.4000000000000004 0.2 0.0
2.8000000000000003 0.2 0.0
3.2 0.2 0.0
3.6 0.2 0.0
4.0 0.2 0.0
4.4 0.2 0.0
4.800000000000001 0.2 0.0
5.2 0.2 0.0
5.6000000000000005 0.2 0.0
6.0 0.2 0.0
6.4 0.2 0.0
6.800000000000001 0.2 0.0
7.2 0.2 0.0
7.6000000000000005 0.2 0.0
8.0 0.2 0.0
8.4 0.2 0.0
8.8 0.2 0.0
9.200000000000001 0.2 0.0
9.600000000000001 0.2 0.0
10.0 0.2 0.0
10.4 0.2 0.0
10.8 0.2 0.0
11.200000000000001 0.2 0.0
11.600000000000001 0.2 0.0
12.0 0.2 0.0
12.4 0.2 0.0
12.8 0.2 0.0
13.200000000000001 0.2 0.0
13.600000000000001 0.2 0.0
14.0 0.2 0.0
14.4 0.2 0.0
14.8 0.2 0.0
15.200000000000001 0.2 0.0
15.600000000000001 0.2 0.0
16.0 0.2 0.0
0.0 0.30000000000000004 0.0
0.4 0.30000000000000004 0.0
0.8 0.30000000000000004 0.0
1.2000000000000002 0.30000000000000004 0.0
1.6 0.30000000000000004 0.0
2.0 0.30000000000000004 0.0
2.4000000000000004 0.30000000000000004 0.0
2.8000000000000003 0.30000000000000004 0.0
3.2 0.30000000000000004 0.0
3.6 0.30000000000000004 0.0
4.0 0.30000000000000004 0.0
4.4 0.30000000000000004 0.0
4.800000000000001 0.30000000000000004 0.0
5.2 0.30000000000000004 0.0
5.6000000000000005 0.30000000000000004 0.0
6.0 0.30000000000000004 0.0
6.4 0.30000000000000004 0.0
6.800000000000001 0.30000000000000004 0.0
7.2 0.30000000000000004 0.0
7.6000000000000005 0.30000000000000004 0.0
8.0 0.30000000000000004 0.0
8.4 0.30000000000000004 0.0
8.8 0.30000000000000004 0.0
9.200000000000001 0.30000000000000004 0.0
9.600000000000001 0.30000000000000004 0.0
10.0 0.30000000000000004 0.0
10.4 0.30000000000000004 0.0
10.8 0.30000000000000004 0.0
11.200000000000001 0.30000000000000004 0.0
11.600000000000001 0.30000000000000004 0.0
12.0 0.30000000000000004 0.0
12.4 0.30000000000000004 0.0
12.8 0.30000000000000004 0.0
13.200000000000001 0.30000000000000004 0.0
13.600000000000001 0.30000000000000004 0.0
14.0 0.30000000000000004 0.0
14.4 0.30000000000000004 0.0
14.8 0.30000000000000004 0.0
15.200000000000001 0.30000000000000004 0.0
15.600000000000001 0.30000000000000004 0.0
16.0 0.30000000000000004 0.0
0.0 0.4 0.0
0.4 0.4 0.0
0.8 0.4 0.0
1.2000000000000002 0.4 0.0
1.6 0.4 0.0
2.0 0.4 0.0
2.4000000000000004 0.4 0.0
2.8000000000000003 0.4 0.0
3.2 0.4 0.0
3.6 0.4 0.0
4.0 0.4 0.0
4.4 0.4 0.0
4.800000000000001 0.4 0.0
5.2 0.4 0.0
5.6000000000000005 0.4 0.0
6.0 0.4 0.0
6.4 0.4 0.0
6.800000000000001 0.4 0.0
7.2 0.4 0.0
7.6000000000000005 0.4 0.0
8.0 0.4 0.0
8.4 0.4 0.0
8.8 0.4 0.0
9.200000000000001 0.4 0.0
9.600000000000001 0.4 0.0
10.0 0.4 0.0
10.4 0.4 0.0
10.8 0.4 0.0
11.200000000000001 0.4 0.0
11.600000000000001 0.4 0.0
12.0 0.4 0.0
12.4 0.4 0.0
12.8 0.4 0.0
13.200000000000001 0.4 0.0
13.600000000000001 0.4 0.0
14.0 0.4 0.0
14.4 0.4 0.0
14.8 0.4 0.0
15.200000000000001 0.4 0.0
15.600000000000001 0.4 0.0
16.0 0.4 0.0
0.0 0.5 0.0
0.4 0.5 0.0
0.8 0.5 0.0
1.2000000000000002 0.5 0.0
1.6 0.5 0.0
2.0 0.5 0.0
2.4000000000000004 0.5 0.0
2.8000000000000003 0.5 0.0
3.2 0.5 0.0
3.6 0.5 0.0
4.0 0.5 0.0
4.4 0.5 0.0
4.800000000000001 0.5 0.0
5.2 0.5 0.0
5.6000000000000005 0.5 0.0
6.0 0.5 0.0
6.4 0.5 0.0
6.800000000000001 0.5 0.0
7.2 0.5 0.0
7.6000000000000005 0.5 0.0
8.0 0.5 0.0
8.4 0.5 0.0
8.8 0.5 0.0
9.200000000000001 0.5 0.0
9.600000000000001 0.5 0.0
10.0 0.5 0.0
10.4 0.5 0.0
10.8 0.5 0.0
11.200000000000001 0.5 0.0
11.600000000000001 0.5 0.0
12.0 0.5 0.0
12.4 0.5 0.0
12.8 0.5 0.0
13.200000000000001 0.5 0.0
13.600000000000001 0.5 0.0
14.0 0.5 0.0
14.4 0.5 0.0
14.8 0.5 0.0
15.200000000000001 0.5 0.0
15.600000000000001 0.5 0.0
16.0 0.5 0.0
0.0 0.6000000000000001 0.0
0.4 0.6000000000000001 0.0
0.8 0.6000000000000001 0.0
1.2000000000000002 0.6000000000000001 0.0
1.6 0.6000000000000001 0.0
2.0 0.6000000000000001 0.0
2.4000000000000004 0.6000000000000001 0.0
2.8000000000000003 0.6000000000000001 0.0
3.2 0.6000000000000001 0.0
3.6 0.6000000000000001 0.0
4.0 0.6000000000000001 0.0
4.4 0.6000000000000001 0.0
4.800000000000001 0.6000000000000001 0.0
5.2 0.6000000000000001 0.0
5.6000000000000005 0.6000000000000001 0.0
6.0 0.6000000000000001 0.0
6.4 0.6000000000000001 0.0
6.800000000000001 0.6000000000000001 0.0
7.2 0.6000000000000001 0.0
7.6000000000000005 0.6000000000000001 0.0
8.0 0.6000000000000001 0.0
8.4 0.6000000000000001 0.0
8.8 0.6000000000000001 0.0
9.200000000000001 0.6000000000000001 0.0
9.600000000000001 0.6000000000000001 0.0
10.0 0.6000000000000001 0.0
10.4 0.6000000000000001 0.0
10.8 0.6000000000000001 0.0
11.200000000000001 0.6000000000000001 0.0
11.600000000000001 0.6000000000000001 0.0
12.0 0.6000000000000001 0.0
12.4 0.6000000000000001 0.0
12.8 0.6000000000000001 0.0
13.200000000000001 0.6000000000000001 0.0
13.600000000000001 0.6000000000000001 0.0
14.0 0.6000000000000001 0.0
14.4 0.6000000000000001 0.0
14.8 0.6000000000000001 0.0
15.200000000000001 0.6000000000000001 0.0
15.600000000000001 0.6000000000000001 0.0
16.0 0.6000000000000001 0.0
0.0 0.7000000000000001 0.0
0.4 0.7000000000000001 0.0
0.8 0.7000000000000001 0.0
1.2000000000000002 0.7000000000000001 0.0
1.6 0.7000000000000001 0.0
2.0 0.7000000000000001 0.0
2.4000000000000004 0.7000000000000001 0.0
2.8000000000000003 0.7000000000000001 0.0
3.2 0.7000000000000001 0.0
3.6 0.7000000000000001 0.0
4.0 0.7000000000000001 0.0
4.4 0.7000000000000001 0.0
4.800000000000001 0.7000000000000001 0.0
5.2 0.7000000000000001 0.0
5.6000000000000005 0.7000000000000001 0.0
6.0 0.7000000000000001 0.0
6.4 0.7000000000000001 0.0
6.800000000000001 0.7000000000000001 0.0
7.2 0.7000000000000001 0.0
7.6000000000000005 0.7000000000000001 0.0
8.0 0.7000000000000001 0.0
8.4 0.7000000000000001 0.0
8.8 0.7000000000000001 0.0
9.200000000000001 0.7000000000000001 0.0
9.600000000000001 0.7000000000000001 0.0
10.0 0.7000000000000001 0.0
10.4 0.7000000000000001 0.0
10.8 0.7000000000000001 0.0
11.200000000000001 0.7000000000000001 0.0
11.600000000000001 0.7000000000000001 0.0
12.0 0.7000000000000001 0.0
12.4 0.7000000000000001 0.0
12.8 0.7000000000000001 0.0
13.200000000000001 0.7000000000000001 0.0
13.600000000000001 0.7000000000000001 0.0
14.0 0.7000000000000001 0.0
14.4 0.7000000000000001 0.0
14.8 0.7000000000000001 0.0
15.200000000000001 0.7000000000000001 0.0
15.600000000000001 0.7000000000000001 0.0
16.0 0.7000000000000001 0.0
0.0 0.8 0.0
0.4 0.8 0.0
0.8 0.8 0.0
1.2000000000000002 0.8 0.0
1.6 0.8 0.0
2.0 0.8 0.0
2.4000000000000004 0.8 0.0
2.8000000000000003 0.8 0.0
3.2 0.8 0.0
3.6 0.8 0.0
4.0 0.8 0.0
4.4 0.8 0.0
4.800000000000001 0.8 0.0
5.2 0.8 0.0
5.6000000000000005 0.8 0.0
6.0 0.8 0.0
6.4 0.8 0.0
6.800000000000001 0.8 0.0
7.2 0.8 0.0
7.6000000000000005 0.8 0.0
8.0 0.8 0.0
8.4 0.8 0.0
8.8 0.8 0.0
9.200000000000001 0.8 0.0
9.600000000000001 0.8 0.0
10.0 0.8 0.0
10.4 0.8 0.0
10.8 0.8 0.0
11.200000000000001 0.8 0.0
11.600000000000001 0.8 0.0
12.0 0.8 0.0
12.4 0.8 0.0
12.8 0.8 0.0
13.200000000000001 0.8 0.0
13.600000000000001 0.8 0.0
14.0 0.8 0.0
14.4 0.8 0.0
14.8 0.8 0.0
15.200000000000001 0.8 0.0
15.600000000000001 0.8 0.0
16.0 0.8 0.0
0.0 0.9 0.0
0.4 0.9 0.0
0.8 0.9 0.0
1.2000000000000002 0.9 0.0
1.6 0.9 0.0
2.0 0.9 0.0
2.4000000000000004 0.9 0.0
2.8000000000000003 0.9 0.0
3.2 0.9 0.0
3.6 0.9 0.0
4.0 0.9 0.0
4.4 0.9 0.0
4.800000000000001 0.9 0.0
5.2 0.9 0.0
5.6000000000000005 0.9 0.0
6.0 0.9 0.0
6.4 0.9 0.0
6.800000000000001 0.9 0.0
7.2 0.9 0.0
7.6000000000000005 0.9 0.0
8.0 0.9 0.0
8.4 0.9 0.0
8.8 0.9 0.0
9.200000000000001 0.9 0.0
9.600000000000001 0.9 0.0
10.0 0.9 0.0
10.4 0.9 0.0
10.8 0.9 0.0
11.200000000000001 0.9 0.0
11.600000000000001 0.9 0.0
12.0 0.9 0.0
12.4 0.9 0.0
12.8 0.9 0.0
13.200000000000001 0.9 0.0
13.600000000000001 0.9 0.0
14.0 0.9 0.0
14.4 0.9 0.0
14.8 0.9 0.0
15.200000000000001 0.9 0.0
15.600000000000001 0.9 0.0
16.0 0.9 0.0
0.0 1.0 0.0
0.4 1.0 0.0
0.8 1.0 0.0
1.2000000000000002 1.0 0.0
1.6 1.0 0.0
2.0 1.0 0.0
2.4000000000000004 1.0 0.0
2.8000000000000003 1.0 0.0
3.2 1.0 0.0
3.6 1.0 0.0
4.0 1.0 0.0
4.4 1.0 0.0
4.800000000000001 1.0 0.0
5.2 1.0 0.0
5.6000000000000005 1.0 0.0
6.0 1.0 0.0
6.4 1.0 0.0
6.800000000000001 1.0 0.0
7.2 1.0 0.0
7.6000000000000005 1.0 0.0
8.0 1.0 0.0
8.4 1.0 0.0
8.8 1.0 0.0
9.200000000000001 1.0 0.0
9.600000000000001 1.0 0.0
10.0 1.0 0.0
10.4 1.0 0.0
10.8 1.0 0.0
11.200000000000001 1.0 0.0
11.600000000000001 1.0 0.0
12.0 1.0 0.0
12.4 1.0 0.0
12.8 1.0 0.0
13.200000000000001 1.0 0.0
13.600000000000001 1.0 0.0
14.0 1.0 0.0
14.4 1.0 0.0
14.8 1.0 0.0
15.200000000000001 1.0 0.0
15.600000000000001 1.0 0.0
16.0 1.0 0.0
0.0 1.1 0.0
0.4 1.1 0.0
0.8 1.1 0.0
1.2000000000000002 1.1 0.0
1.6 1.1 0.0
[...]
POINT_DATA 861
SCALARS Disp float 2
LOOKUP_TABLE default
0.0 0.0
0.0033508472699948118 -0.09760868029699
0.004257321346058713 -0.18930969222325902
0.004949730088222695 -0.28049960780815686
0.005763399978638088 -0.3714058817040957
0.006827214960003515 -0.4618766297699189
0.008361463424234153 -0.5517127023824446
0.010531243257594265 -0.6407107911542859
0.013512251473805343 -0.7286160821340769
0.017501285776238915 -0.8150912589362883
0.022729510385733624 -0.8996814304356353
0.02951113925030164 -0.9817740178973812
0.038286997316118954 -1.060568315652751
0.049610452333041094 -1.1350814563071112
0.06412980214975988 -1.2041654741636663
0.08250127620267184 -1.2665216862337652
0.10524175956390693 -1.3207138426476412
0.13254616865967764 -1.3651996475064734
0.16412974526440796 -1.3984454939906559
0.19916715880431077 -1.4191474919685625
0.2362912759158207 -1.4264513715164284
0.2734153930273303 -1.4191474919685347
0.30845280656722995 -1.3984454939905986
0.34003638317195406 -1.36519964750639
0.3673407922677169 -1.3207138426475367
0.39008127562894396 -1.2665216862336472
0.40845274968184836 -1.2041654741635361
0.4229720994985587 -1.1350814563069729
0.43429555451547197 -1.060568315652608
0.4430714125812802 -0.9817740178972377
0.4498530414458396 -0.8996814304354953
0.455081266055327 -0.815091258936155
0.4590703003577545 -0.7286160821339519
0.4620513085739606 -0.6407107911541714
0.46422108840731685 -0.5517127023823419
0.46575533687154463 -0.4618766297698306
0.4668191518529088 -0.371405881704022
0.46763282174332377 -0.28049960780809924
0.4683252304854875 -0.1893096922232166
0.4692317045615509 -0.09760868029696435
0.4725825518315438 0.0
0.024371571753559206 -0.0015479126477519094
0.026569395769115656 -0.09767014762187419
0.02707441397534928 -0.1893805540475327
0.02770635760857341 -0.28057369410962
0.028436283438030625 -0.3714975291981231
0.02937054422683494 -0.46202859273283886
0.03072084650470011 -0.55197199453271
0.03264940262084382 -0.6411148548483323
0.03531647855283895 -0.7292083401581222
0.038892774826139696 -0.815919093117078
0.04357961552605108 -0.9008050351818616
0.0496478974236262 -0.9832798455015379
0.05748258163403229 -1.0625757277509529
0.06759823629554547 -1.1377374138431846
0.08059678801233401 -1.2076337765101133
0.09709535126794822 -1.2709534100473607
0.11758083696549061 -1.3262051242450719
0.1422435824666781 -1.3717491029506534
0.17084338887510875 -1.4059264931244015
0.20263460780832473 -1.4273025236986494
0.23629127591581733 -1.4348680424829987
0.26994794402330957 -1.4273025236986214
0.3017391629565226 -1.4059264931243434
0.33033896936494805 -1.3717491029505686
0.3550017148661289 -1.3262051242449657
0.3754872005636643 -1.270953410047241
0.3919857638192716 -1.2076337765099814
0.40498431553605263 -1.1377374138430443
0.4150999701975579 -1.0625757277508079
0.4229346544079559 -0.9832798455013927
0.4290029363055233 -0.90080503518172
0.43368977700542805 -0.8159190931169432
0.4372660732787232 -0.729208340157996
0.43993314921071386 -0.641114854848217
0.4418617053268541 -0.5519719945326065
0.44321200760471685 -0.46202859273275015
0.4441462683935201 -0.3714975291980493
0.44487619422297703 -0.2805736941095623
0.44550813785620097 -0.1893805540474903
0.44601315606243475 -0.09767014762184846
0.44821098007798826 -0.0015479126477501227
0.04808052348695124 -0.0027512527604212373
0.04963083999361043 -0.09769019906613972
0.049921972810786544 -0.1894237346745328
0.05043760452672406 -0.2806428081793735
0.051090245024432095 -0.3715766365709708
0.05190907523753455 -0.4621516504018874
0.053071126918774886 -0.5521877297532869
0.05475574837847731 -0.64145930293359
0.05710428046506951 -0.7297202969976354
0.06026505001795387 -0.8166398602337365
0.06440994428761168 -0.9017869735571795
0.06977072510942978 -0.9845969598377716
0.07667892101555353 -1.0643337400355875
0.08559149063556999 -1.140073260177687
0.09706923277678023 -1.210699529972952
0.11168047732237293 -1.2748903187829799
0.12988285705233446 -1.3311049206848948
0.15187675649084653 -1.3776164019108768
0.1774780397247122 -1.412652713824253
0.20601548473705283 -1.4346458215501012
0.23629127591581436 -1.4424562653642032
0.26656706709457534 -1.4346458215500728
0.29510451210691335 -1.4126527138241938
0.32070579534077454 -1.3776164019107908
0.34269969477928097 -1.3311049206847874
0.3609020745092364 -1.2748903187828584
0.37551331905482277 -1.210699529972819
0.38699106119602644 -1.140073260177545
0.39590363081603586 -1.0643337400354407
0.40281182672215254 -0.9845969598376247
0.4081726075439637 -0.9017869735570364
0.41231750181361565 -0.8166398602336005
0.41547827136649496 -0.7297202969975082
0.41782680345308315 -0.6414593029334738
0.4195114249127824 -0.552187729753183
0.4206734765940208 -0.4621516504017984
0.4214923068071226 -0.37157663657089696
0.42214494730483026 -0.2806428081793157
0.42266057902076776 -0.18942373467449045
0.42295171183794406 -0.09769019906611384
0.4245020283446004 -0.002751252760417687
0.07144189278493367 -0.0037089512944001087
0.07257941794204237 -0.09770587539936335
0.07275436675501742 -0.189446995865843
0.07315397700928254 -0.28070003201625005
0.07371922099167807 -0.3716479818393237
0.07443842582246037 -0.46225028526404255
0.07541966822400911 -0.552359508143846
0.07685583501035885 -0.6417452520449871
0.07888288941932292 -0.7301524889352877
0.08162620645827653 -0.8172546681361891
0.08523059942277889 -0.9026288534267984
0.08988915875927946 -0.985729273090699
0.0958832487392149 -1.0658476099425604
0.10361041038921395 -1.1420913674414244
0.11356950854264676 -1.213362694044373
0.12628611789026042 -1.2783290592197543
0.14218841765201098 -1.3354076456895785
0.16148868862148022 -1.382796662109984
0.18406495156239003 -1.4186202574863065
0.20934960042839995 -1.4411862666680284
0.2362912759158117 -1.4492389728512682
0.2632329514032225 -1.4411862666679995
0.2885176002692301 -1.4186202574862465
0.3110938632101361 -1.3827966621098968
0.33039413417960034 -1.3354076456894701
0.3462964339413456 -1.2783290592196317
0.3590130432889536 -1.2133626940442384
0.36897214144238066 -1.142091367441281
0.37669930309237376 -1.0658476099424126
0.38269339307230293 -0.9857292730905506
0.38735195240879755 -0.902628853426654
0.39095634537329466 -0.817254668136052
0.3936996624122438 -0.7301524889351596
0.39572671682120436 -0.6417452520448702
0.39716288360755136 -0.5523595081437416
0.39814412600909865 -0.4622502852639534
0.3988633308398804 -0.3716479818392498
0.3994285748222757 -0.2807000320161922
0.3998281850765408 -0.1894469958658007
0.4000031338895159 -0.09770587539933728
0.4011406590466221 -0.0037089512943949896
0.0945990653226739 -0.0044748390085328155
0.09544434714479293 -0.09772679690223277
0.09555515596286154 -0.18945872099185054
0.09585397928238011 -0.2807438093933181
0.09632537509465762 -0.37171061680936307
0.09694664412764156 -0.4623330936043639
0.09777198598940301 -0.5524911418241314
0.0989561908379541 -0.6419731345337251
0.100659865760962 -0.7305064664729367
0.10298510197896572 -0.8177651056754017
0.10605084865674001 -0.9033334938148954
0.11001473761149681 -0.986680274536518
0.1151070223222447 -1.0671224633302512
0.12166376606158501 -1.143797260303871
0.1301227161556987 -1.2156250855152753
0.1409470313901633 -1.2812685197051632
0.15453758987662708 -1.3391097120874276
0.17112251258195535 -1.387284090257923
0.1906456129377524 -1.4238250445749692
0.2126656278446849 -1.4469287359683527
0.23629127591580906 -1.4552285610567897
0.2599169239869322 -1.4469287359683236
0.2819369388938626 -1.4238250445749085
0.30146003924965625 -1.387284090257835
0.3180449619549802 -1.339109712087318
0.3316355204414394 -1.2812685197050395
0.3424598356758991 -1.2156250855151396
0.35091878577000785 -1.1437972603037263
0.357475529509343 -1.067122463330102
0.36256781422008555 -0.9866802745363682
0.36653170317483735 -0.9033334938147498
0.3695974498526071 -0.8177651056752636
0.371922686070607 -0.7305064664728078
0.3736263609936118 -0.6419731345336076
0.3748105658421608 -0.5524911418240266
0.3756359077039212 -0.4623330936042747
0.3762571767369047 -0.37171061680928913
0.37672857254918196 -0.28074380939326027
0.3770273958687005 -0.18945872099180822
0.3771382046867692 -0.09772679690220655
0.3779834865088861 -0.004474839008526349
0.11762017890836267 -0.005084119915026697
0.1182487421268086 -0.09775428828230057
0.11832087634110738 -0.18946457696009833
0.1185350088526483 -0.28077504464811004
0.11891104835023722 -0.37176287709846056
0.1194309916415044 -0.46240292770769575
0.12011706024595246 -0.5525922155225116
0.12107141559822465 -0.6421431614442914
0.12244389897886002 -0.7307840618938867
0.12435123808871129 -0.8181737176312249
0.1268813185834504 -0.9039037225353508
0.1301576037925126 -0.9874545892811023
0.1343625679744683 -1.0681641314120072
0.13976992829919158 -1.145196743470978
0.14674381171677686 -1.2174924120473651
0.15569295162429617 -1.283710994136497
0.1669764183844638 -1.3422091202497906
0.18082525092402849 -1.391073059257867
0.19726213296312053 -1.4282614590484692
0.21598963184126405 -1.4518728426391747
0.2362912759158064 -1.4604305805104913
0.2565929199903479 -1.4518728426391452
0.27532041886848935 -1.4282614590484077
0.2917573009075784 -1.3910730592577782
0.3056061334471395 -1.34220912024968
0.3168896002073031 -1.2837109941363725
0.3258387401148183 -1.2174924120472284
0.3328126235323994 -1.1451967434708321
0.33821998385711854 -1.0681641314118566
0.3424249480390698 -0.9874545892809514
0.3457012332481278 -0.9039037225352043
0.34823131374286315 -0.818173717631086
0.3501386528527113 -0.7307840618937571
0.35151113623334407 -0.6421431614441735
0.3524654915856147 -0.5525922155224066
0.35315156019006205 -0.4624029277076065
0.35367150348132886 -0.37176287709838657
0.35404754297891755 -0.28077504464805214
0.3542616754904584 -0.18946457696005603
0.3543338097047572 -0.09775428828227424
0.3549623729232015 -0.005084119915019117
0.14054276690515094 -0.005564851504803844
0.14100917696433363 -0.097787241850179
0.14105387755061 -0.18946757381046764
0.14119588879123166 -0.2807953764071509
0.14147862543811898 -0.3718035108706714
0.1418919967827965 -0.46246117913936086
0.14244333885011726 -0.5526715155152654
0.14319340576423964 -0.6422656566146151
0.14425137581592648 -0.73098641575582
0.1457355275653003 -0.8184835457360269
0.14773400873344406 -0.9043436800319116
0.15033039114648078 -0.9880573497739923
0.1536625931421771 -1.0689794015374077
0.15794153269212877 -1.1462979502988369
0.16345949171519236 -1.2189710136731928
0.17055174300302245 -1.2856620914397883
0.17953902880857395 -1.3447078991897712
0.1906490026434406 -1.3941590486835072
0.20396441567273993 -1.4319213816753886
0.21934957891472012 -1.4560123844195652
0.23629127591580362 -1.4648445021034662
0.2532329729168864 -1.4560123844195352
0.2686181361588648 -1.4319213816753267
0.2819335491881615 -1.3941590486834177
0.2930435230230252 -1.3447078991896602
0.30203080882857336 -1.2856620914396624
0.30912306011640006 -1.2189710136730554
0.31464101913946046 -1.1462979502986903
0.3189199586894087 -1.0689794015372562
0.3222521606851016 -0.9880573497738407
0.32484854309813505 -0.9043436800317642
0.3268470242662757 -0.8184835457358873
0.3283311760156471 -0.7309864157556899
0.32938914606733205 -0.6422656566144969
0.33013921298145343 -0.5526715155151605
0.33069055504877365 -0.46246117913927154
0.3311039263934509 -0.3718035108705973
0.3313866630403379 -0.28079537640709296
0.33152867428095956 -0.1894675738104253
0.33157337486723587 -0.09778724185015258
0.33203978492641745 -0.005564851504795379
0.16339335889944692 -0.005938301789304314
0.16373554933723286 -0.09782568643330963
0.16375879753321068 -0.18946862862517724
0.16383725550328299 -0.2808063206544702
0.16403012856105106 -0.37183239232208276
0.16433413434513888 -0.46250644470100394
0.16475059664904407 -0.5527320671445214
0.1653097786770662 -0.6423525299530567
0.1660824580459387 -0.7311227706967769
0.16715680073464015 -0.8186980796757333
0.1686228835912052 -0.9046584415747525
0.17054652473679555 -0.988494969221138
0.17302088812803673 -1.0695764949171085
0.17619553181008815 -1.147110524388048
0.18028654913323103 -1.2200716428426808
0.18555530824081812 -1.2871296299057087
0.19226643911145258 -1.3466103757904413
0.200636053275315 -1.396541367740383
0.2108022609220729 -1.434795465612047
0.22277821658849853 -1.4593345665717368
0.2362912759158007 -1.4684631788201061
0.2498043352431024 -1.4593345665717066
0.2617802909095266 -1.4347954656119843
0.2719464985562821 -1.396541367740293
0.28031611272014223 -1.3466103757903298
0.2870272435907742 -1.287129629905582
0.2922960026983586 -1.2200716428425427
0.29638702002149914 -1.147110524387901
0.2995616637035482 -1.0695764949169564
0.3020360270947869 -0.9884949692209858
0.30395966824037485 -0.9046584415746045
0.30542575109693754 -0.8186980796755933
0.3065000937856374 -0.7311227706966464
0.3072727731545086 -0.6423525299529385
0.30783195518253004 -0.5527320671444163
0.3082484174864349 -0.4625064447009147
0.3085524232705225 -0.37183239232200854
0.3087452963282904 -0.2808063206544122
0.3088237542983626 -0.18946862862513486
0.3088470024943404 -0.09782568643328318
0.3091891929321256 -0.005938301789295189
0.1861867171662014 -0.006226206108987905
0.18643803349756166 -0.0978685568937742
0.18643965181286268 -0.1894678569854841
0.18646140642438377 -0.28080910025869604
0.18656814758901127 -0.37184974042555335
0.1867614100179782 -0.46253759422892826
0.18703796524732813 -0.552776080720581
0.18741177520409982 -0.6424120012684857
0.18792373708905458 -0.7312078311002901
0.18861960064230263 -0.8188286031656563
0.1895667385439729 -0.9048551098241968
0.19082519698871486 -0.9887763555941386
0.19245405973133367 -1.0699662592874701
0.19454782772938603 -1.147647454483884
0.19724604286808603 -1.2208081282599303
0.20072978396600888 -1.2881264063706939
0.20519444195062655 -1.34792539677583
0.21083880500504074 -1.3982221692384358
0.21783109950916746 -1.4368750804953918
0.22631340479714607 -1.461820969493163
0.2362912759157976 -1.4712731535936474
0.24626914703444863 -1.4618209694931323
0.2547514523224263 -1.4368750804953287
0.2617437468265513 -1.3982221692383452
0.26738810988096384 -1.347925396775718
0.2718527678655798 -1.2881264063705669
0.2753365089635009 -1.2208081282597918
0.2780347241021995 -1.1476474544837365
0.28012849210025037 -1.0699662592873178
0.2817573548428677 -0.988776355593986
0.2830158132876081 -0.9048551098240486
0.28396295118927695 -0.818828603165516
0.2846588147425241 -0.7312078311001596
0.2851707766274781 -0.6424120012683673
0.28554458658424936 -0.552776080720476
0.28582114181359913 -0.462537594228839
0.28601440424256597 -0.37184974042547914
0.28612114540719336 -0.28080910025863803
0.28614290001871445 -0.18946785698544175
0.28614451833401544 -0.09786855689374775
0.2863958346653752 -0.0062262061089783235
0.20893125090344966 -0.0064533500820449135
0.2091201181521445 -0.09791358762451781
0.2091013720153085 -0.1894651978662695
0.20907143462465463 -0.28080466694753553
0.20909571911040972 -0.3718558203394719
0.20917825467479004 -0.46255431591835466
0.20931222581288447 -0.5528020923654807
0.20949905860129586 -0.6424476051297915
0.20975258885730413 -0.7312568335085807
0.21010186618042798 -0.8188971081420692
0.21056607434811178 -0.9049523811423359
0.21118317586674523 -0.9889174278628435
0.21198248956877377 -1.0701654600164912
0.21301451655097808 -1.1479281099096574
0.21435242797907741 -1.2212020662743996
0.2160903396872398 -1.2886737167748963
0.2183455388320169 -1.3486692059263425
0.22127726165429967 -1.399212940229996
0.225100069087656 -1.438158536434824
0.2300139542844769 -1.4634480275057278
0.23629127591579419 -1.473251449442576
0.2425685975471114 -1.4634480275056967
0.24748248274393178 -1.4381585364347609
0.2513052901772872 -1.399212940229905
0.25423701299956886 -1.3486692059262304
0.25649221214434526 -1.288673716774769
0.2582301238525069 -1.221202066274261
0.25956803528060574 -1.1479281099095098
0.2606000622628095 -1.0701654600163388
0.26139937596483753 -0.9889174278626907
0.2620164774834704 -0.9049523811421875
0.2624806856511537 -0.8188971081419288
0.2628299629742772 -0.7312568335084502
0.2630834932302852 -0.6424476051296728
0.26327032601869643 -0.5528020923653757
0.26340429715679087 -0.46255431591826535
0.2634868327211711 -0.3718558203393977
0.26351111720692627 -0.2808046669474775
0.2634811798162724 -0.1894651978662271
0.2634624336794364 -0.09791358762449136
0.263651300928131 -0.006453350082035051
0.23164097507849543 -0.006635185430286933
0.23178645354406605 -0.09795825068996215
0.2317485079131151 -0.18946067783575707
0.23167107492677222 -0.2807936797518647
0.2316163865257953 -0.3718510518454807
0.23158940908029463 -0.46255648800980076
0.2315795001070095 -0.5528096613193693
0.23157739403036662 -0.6424593756479984
0.23157765888710988 -0.7312728377366876
0.231578167894138 -0.8189196526345425
0.23157852693854433 -0.9049823600244072
0.23157877528092688 -0.9889586875283933
0.231578659660267 -1.0702198981899895
0.23157700544932713 -1.1480017697152327
0.23157372337921295 -1.2213059751757547
0.23157831977988103 -1.2888205680720637
0.23163128991471849 -1.348885463983979
0.2318599656899324 -1.3995490178670982
0.2325154790420383 -1.438678689158824
0.23389945512318416 -1.4642101377114818
0.2362912759157906 -1.474374618834973
0.23868309670839746 -1.4642101377114507
0.24006707278954317 -1.4386786891587608
0.24072258614164874 -1.3995490178670067
0.24095126191686267 -1.3488854639838666
0.24100423205170046 -1.2888205680719362
0.2410088284523688 -1.2213059751756157
0.24100554638225488 -1.148001769715085
0.24100389217131557 -1.0702198981898368
0.24100377655065616 -0.9889586875282407
0.24100402489303915 -0.9049823600242589
0.2410043839374458 -0.8189196526344023
0.24100489294447416 -0.7312728377365572
0.24100515780121756 -0.6424593756478798
0.24100305172457478 -0.5528096613192642
0.24099314275128977 -0.4625564880097115
0.24096616530578926 -0.37185105184540646
0.24091147690481243 -0.2807936797518067
0.2408340439184696 -0.18946067783571463
0.2407960982875187 -0.09795825068993569
0.24094157675308916 -0.00663518543027686
0.25433080954269993 -0.006779544924170995
0.25444173262257624 -0.09800042316860372
0.25438592195022924 -0.18945423523759755
0.25426436729740387 -0.2807766584336289
0.2541340754355886 -0.3718359353092968
0.25399968455383287 -0.46254425074343875
0.25384683106620226 -0.5527986987662437
0.25365585104093713 -0.6424470744422349
0.25340279549720446 -0.731257043020431
0.2530545254560096 -0.8188972766722901
0.25259100187669076 -0.9049525029714298
0.25197441697067724 -0.9889174368089558
0.25117496417174145 -1.0701651323054486
0.25013993231233755 -1.147926956368168
0.24879509075435743 -1.2212014174039603
0.24706329815699762 -1.2886801582137275
0.24490785410110288 -1.348715185144178
0.24239471302730192 -1.3993760081407762
0.23976098282976585 -1.4385722300492538
0.23744399097138275 -1.4642100386986525
0.2362912759157874 -1.4747500508978015
0.23513856086019203 -1.4642100386986217
0.23282156900180878 -1.4385722300491905
0.23018783880427324 -1.399376008140685
0.22767469773047358 -1.3487151851440662
0.2255192536745803 -1.2886801582136003
0.2237874610772217 -1.2212014174038213
0.2224426195192427 -1.1479269563680206
0.2214075876598403 -1.0701651323052963
0.22060813486090614 -0.9889174368088031
0.21999154995489395 -0.9049525029712816
0.2195280263755763 -0.81889727667215
0.21917975633438228 -0.7312570430203006
0.21892670079065019 -0.6424470744421165
0.21873572076538542 -0.5527986987661387
0.21858286727775508 -0.4625442507433494
0.21844847639599968 -0.37183593530922276
0.21831818453418456 -0.28077665843357097
0.21819662988135927 -0.18945423523755509
0.21814081920901232 -0.09800042316857722
0.21825174228888858 -0.00677954492416077
0.27701160045479767 -0.0068913128972635735
0.27709183667867265 -0.0980384072302532
0.2770184788629354 -0.18944568663151373
0.2768555598696135 -0.28075403685925776
0.2766530016606889 -0.37181102733238736
0.27641399411237627 -0.4625179820853997
0.276120815495445 -0.5527695011239154
0.2757434525490948 -0.6424109873557787
0.27523183244894034 -0.7312082410561989
0.2745369372903458 -0.8188289531534343
0.27359040040984034 -0.9048553332184031