# vtk DataFile Version 3.0
Some data
ASCII
DATASET UNSTRUCTURED_GRID
POINTS 861 float
0.0 0.0 0.0
0.4 0.0 0.0
0.8 0.0 0.0
1.2000000000000002 0.0 0.0
1.6 0.0 0.0
2.0 0.0 0.0
2.4000000000000004 0.0 0.0
2.8000000000000003 0.0 0.0
3.2 0.0 0.0
3.6 0.0 0.0
4.0 0.0 0.0
4.4 0.0 0.0
4.800000000000001 0.0 0.0
5.2 0.0 0.0
5.6000000000000005 0.0 0.0
6.0 0.0 0.0
6.4 0.0 0.0
6.800000000000001 0.0 0.0
7.2 0.0 0.0
7.6000000000000005 0.0 0.0
8.0 0.0 0.0
8.4 0.0 0.0
8.8 0.0 0.0
9.200000000000001 0.0 0.0
9.600000000000001 0.0 0.0
10.0 0.0 0.0
10.4 0.0 0.0
10.8 0.0 0.0
11.200000000000001 0.0 0.0
11.600000000000001 0.0 0.0
12.0 0.0 0.0
12.4 0.0 0.0
12.8 0.0 0.0
13.200000000000001 0.0 0.0
13.600000000000001 0.0 0.0
14.0 0.0 0.0
14.4 0.0 0.0
14.8 0.0 0.0
15.200000000000001 0.0 0.0
15.600000000000001 0.0 0.0
16.0 0.0 0.0
0.0 0.1 0.0
0.4 0.1 0.0
0.8 0.1 0.0
1.2000000000000002 0.1 0.0
1.6 0.1 0.0
2.0 0.1 0.0
2.4000000000000004 0.1 0.0
2.8000000000000003 0.1 0.0
3.2 0.1 0.0
3.6 0.1 0.0
4.0 0.1 0.0
4.4 0.1 0.0
4.800000000000001 0.1 0.0
5.2 0.1 0.0
5.6000000000000005 0.1 0.0
6.0 0.1 0.0
6.4 0.1 0.0
6.800000000000001 0.1 0.0
7.2 0.1 0.0
7.6000000000000005 0.1 0.0
8.0 0.1 0.0
8.4 0.1 0.0
8.8 0.1 0.0
9.200000000000001 0.1 0.0
9.600000000000001 0.1 0.0
10.0 0.1 0.0
10.4 0.1 0.0
10.8 0.1 0.0
11.200000000000001 0.1 0.0
11.600000000000001 0.1 0.0
12.0 0.1 0.0
12.4 0.1 0.0
12.8 0.1 0.0
13.200000000000001 0.1 0.0
13.600000000000001 0.1 0.0
14.0 0.1 0.0
14.4 0.1 0.0
14.8 0.1 0.0
15.200000000000001 0.1 0.0
15.600000000000001 0.1 0.0
16.0 0.1 0.0
0.0 0.2 0.0
0.4 0.2 0.0
0.8 0.2 0.0
1.2000000000000002 0.2 0.0
1.6 0.2 0.0
2.0 0.2 0.0
2.4000000000000004 0.2 0.0
2.8000000000000003 0.2 0.0
3.2 0.2 0.0
3.6 0.2 0.0
4.0 0.2 0.0
4.4 0.2 0.0
4.800000000000001 0.2 0.0
5.2 0.2 0.0
5.6000000000000005 0.2 0.0
6.0 0.2 0.0
6.4 0.2 0.0
6.800000000000001 0.2 0.0
7.2 0.2 0.0
7.6000000000000005 0.2 0.0
8.0 0.2 0.0
8.4 0.2 0.0
8.8 0.2 0.0
9.200000000000001 0.2 0.0
9.600000000000001 0.2 0.0
10.0 0.2 0.0
10.4 0.2 0.0
10.8 0.2 0.0
11.200000000000001 0.2 0.0
11.600000000000001 0.2 0.0
12.0 0.2 0.0
12.4 0.2 0.0
12.8 0.2 0.0
13.200000000000001 0.2 0.0
13.600000000000001 0.2 0.0
14.0 0.2 0.0
14.4 0.2 0.0
14.8 0.2 0.0
15.200000000000001 0.2 0.0
15.600000000000001 0.2 0.0
16.0 0.2 0.0
0.0 0.30000000000000004 0.0
0.4 0.30000000000000004 0.0
0.8 0.30000000000000004 0.0
1.2000000000000002 0.30000000000000004 0.0
1.6 0.30000000000000004 0.0
2.0 0.30000000000000004 0.0
2.4000000000000004 0.30000000000000004 0.0
2.8000000000000003 0.30000000000000004 0.0
3.2 0.30000000000000004 0.0
3.6 0.30000000000000004 0.0
4.0 0.30000000000000004 0.0
4.4 0.30000000000000004 0.0
4.800000000000001 0.30000000000000004 0.0
5.2 0.30000000000000004 0.0
5.6000000000000005 0.30000000000000004 0.0
6.0 0.30000000000000004 0.0
6.4 0.30000000000000004 0.0
6.800000000000001 0.30000000000000004 0.0
7.2 0.30000000000000004 0.0
7.6000000000000005 0.30000000000000004 0.0
8.0 0.30000000000000004 0.0
8.4 0.30000000000000004 0.0
8.8 0.30000000000000004 0.0
9.200000000000001 0.30000000000000004 0.0
9.600000000000001 0.30000000000000004 0.0
10.0 0.30000000000000004 0.0
10.4 0.30000000000000004 0.0
10.8 0.30000000000000004 0.0
11.200000000000001 0.30000000000000004 0.0
11.600000000000001 0.30000000000000004 0.0
12.0 0.30000000000000004 0.0
12.4 0.30000000000000004 0.0
12.8 0.30000000000000004 0.0
13.200000000000001 0.30000000000000004 0.0
13.600000000000001 0.30000000000000004 0.0
14.0 0.30000000000000004 0.0
14.4 0.30000000000000004 0.0
14.8 0.30000000000000004 0.0
15.200000000000001 0.30000000000000004 0.0
15.600000000000001 0.30000000000000004 0.0
16.0 0.30000000000000004 0.0
0.0 0.4 0.0
0.4 0.4 0.0
0.8 0.4 0.0
1.2000000000000002 0.4 0.0
1.6 0.4 0.0
2.0 0.4 0.0
2.4000000000000004 0.4 0.0
2.8000000000000003 0.4 0.0
3.2 0.4 0.0
3.6 0.4 0.0
4.0 0.4 0.0
4.4 0.4 0.0
4.800000000000001 0.4 0.0
5.2 0.4 0.0
5.6000000000000005 0.4 0.0
6.0 0.4 0.0
6.4 0.4 0.0
6.800000000000001 0.4 0.0
7.2 0.4 0.0
7.6000000000000005 0.4 0.0
8.0 0.4 0.0
8.4 0.4 0.0
8.8 0.4 0.0
9.200000000000001 0.4 0.0
9.600000000000001 0.4 0.0
10.0 0.4 0.0
10.4 0.4 0.0
10.8 0.4 0.0
11.200000000000001 0.4 0.0
11.600000000000001 0.4 0.0
12.0 0.4 0.0
12.4 0.4 0.0
12.8 0.4 0.0
13.200000000000001 0.4 0.0
13.600000000000001 0.4 0.0
14.0 0.4 0.0
14.4 0.4 0.0
14.8 0.4 0.0
15.200000000000001 0.4 0.0
15.600000000000001 0.4 0.0
16.0 0.4 0.0
0.0 0.5 0.0
0.4 0.5 0.0
0.8 0.5 0.0
1.2000000000000002 0.5 0.0
1.6 0.5 0.0
2.0 0.5 0.0
2.4000000000000004 0.5 0.0
2.8000000000000003 0.5 0.0
3.2 0.5 0.0
3.6 0.5 0.0
4.0 0.5 0.0
4.4 0.5 0.0
4.800000000000001 0.5 0.0
5.2 0.5 0.0
5.6000000000000005 0.5 0.0
6.0 0.5 0.0
6.4 0.5 0.0
6.800000000000001 0.5 0.0
7.2 0.5 0.0
7.6000000000000005 0.5 0.0
8.0 0.5 0.0
8.4 0.5 0.0
8.8 0.5 0.0
9.200000000000001 0.5 0.0
9.600000000000001 0.5 0.0
10.0 0.5 0.0
10.4 0.5 0.0
10.8 0.5 0.0
11.200000000000001 0.5 0.0
11.600000000000001 0.5 0.0
12.0 0.5 0.0
12.4 0.5 0.0
12.8 0.5 0.0
13.200000000000001 0.5 0.0
13.600000000000001 0.5 0.0
14.0 0.5 0.0
14.4 0.5 0.0
14.8 0.5 0.0
15.200000000000001 0.5 0.0
15.600000000000001 0.5 0.0
16.0 0.5 0.0
0.0 0.6000000000000001 0.0
0.4 0.6000000000000001 0.0
0.8 0.6000000000000001 0.0
1.2000000000000002 0.6000000000000001 0.0
1.6 0.6000000000000001 0.0
2.0 0.6000000000000001 0.0
2.4000000000000004 0.6000000000000001 0.0
2.8000000000000003 0.6000000000000001 0.0
3.2 0.6000000000000001 0.0
3.6 0.6000000000000001 0.0
4.0 0.6000000000000001 0.0
4.4 0.6000000000000001 0.0
4.800000000000001 0.6000000000000001 0.0
5.2 0.6000000000000001 0.0
5.6000000000000005 0.6000000000000001 0.0
6.0 0.6000000000000001 0.0
6.4 0.6000000000000001 0.0
6.800000000000001 0.6000000000000001 0.0
7.2 0.6000000000000001 0.0
7.6000000000000005 0.6000000000000001 0.0
8.0 0.6000000000000001 0.0
8.4 0.6000000000000001 0.0
8.8 0.6000000000000001 0.0
9.200000000000001 0.6000000000000001 0.0
9.600000000000001 0.6000000000000001 0.0
10.0 0.6000000000000001 0.0
10.4 0.6000000000000001 0.0
10.8 0.6000000000000001 0.0
11.200000000000001 0.6000000000000001 0.0
11.600000000000001 0.6000000000000001 0.0
12.0 0.6000000000000001 0.0
12.4 0.6000000000000001 0.0
12.8 0.6000000000000001 0.0
13.200000000000001 0.6000000000000001 0.0
13.600000000000001 0.6000000000000001 0.0
14.0 0.6000000000000001 0.0
14.4 0.6000000000000001 0.0
14.8 0.6000000000000001 0.0
15.200000000000001 0.6000000000000001 0.0
15.600000000000001 0.6000000000000001 0.0
16.0 0.6000000000000001 0.0
0.0 0.7000000000000001 0.0
0.4 0.7000000000000001 0.0
0.8 0.7000000000000001 0.0
1.2000000000000002 0.7000000000000001 0.0
1.6 0.7000000000000001 0.0
2.0 0.7000000000000001 0.0
2.4000000000000004 0.7000000000000001 0.0
2.8000000000000003 0.7000000000000001 0.0
3.2 0.7000000000000001 0.0
3.6 0.7000000000000001 0.0
4.0 0.7000000000000001 0.0
4.4 0.7000000000000001 0.0
4.800000000000001 0.7000000000000001 0.0
5.2 0.7000000000000001 0.0
5.6000000000000005 0.7000000000000001 0.0
6.0 0.7000000000000001 0.0
6.4 0.7000000000000001 0.0
6.800000000000001 0.7000000000000001 0.0
7.2 0.7000000000000001 0.0
7.6000000000000005 0.7000000000000001 0.0
8.0 0.7000000000000001 0.0
8.4 0.7000000000000001 0.0
8.8 0.7000000000000001 0.0
9.200000000000001 0.7000000000000001 0.0
9.600000000000001 0.7000000000000001 0.0
10.0 0.7000000000000001 0.0
10.4 0.7000000000000001 0.0
10.8 0.7000000000000001 0.0
11.200000000000001 0.7000000000000001 0.0
11.600000000000001 0.7000000000000001 0.0
12.0 0.7000000000000001 0.0
12.4 0.7000000000000001 0.0
12.8 0.7000000000000001 0.0
13.200000000000001 0.7000000000000001 0.0
13.600000000000001 0.7000000000000001 0.0
14.0 0.7000000000000001 0.0
14.4 0.7000000000000001 0.0
14.8 0.7000000000000001 0.0
15.200000000000001 0.7000000000000001 0.0
15.600000000000001 0.7000000000000001 0.0
16.0 0.7000000000000001 0.0
0.0 0.8 0.0
0.4 0.8 0.0
0.8 0.8 0.0
1.2000000000000002 0.8 0.0
1.6 0.8 0.0
2.0 0.8 0.0
2.4000000000000004 0.8 0.0
2.8000000000000003 0.8 0.0
3.2 0.8 0.0
3.6 0.8 0.0
4.0 0.8 0.0
4.4 0.8 0.0
4.800000000000001 0.8 0.0
5.2 0.8 0.0
5.6000000000000005 0.8 0.0
6.0 0.8 0.0
6.4 0.8 0.0
6.800000000000001 0.8 0.0
7.2 0.8 0.0
7.6000000000000005 0.8 0.0
8.0 0.8 0.0
8.4 0.8 0.0
8.8 0.8 0.0
9.200000000000001 0.8 0.0
9.600000000000001 0.8 0.0
10.0 0.8 0.0
10.4 0.8 0.0
10.8 0.8 0.0
11.200000000000001 0.8 0.0
11.600000000000001 0.8 0.0
12.0 0.8 0.0
12.4 0.8 0.0
12.8 0.8 0.0
13.200000000000001 0.8 0.0
13.600000000000001 0.8 0.0
14.0 0.8 0.0
14.4 0.8 0.0
14.8 0.8 0.0
15.200000000000001 0.8 0.0
15.600000000000001 0.8 0.0
16.0 0.8 0.0
0.0 0.9 0.0
0.4 0.9 0.0
0.8 0.9 0.0
1.2000000000000002 0.9 0.0
1.6 0.9 0.0
2.0 0.9 0.0
2.4000000000000004 0.9 0.0
2.8000000000000003 0.9 0.0
3.2 0.9 0.0
3.6 0.9 0.0
4.0 0.9 0.0
4.4 0.9 0.0
4.800000000000001 0.9 0.0
5.2 0.9 0.0
5.6000000000000005 0.9 0.0
6.0 0.9 0.0
6.4 0.9 0.0
6.800000000000001 0.9 0.0
7.2 0.9 0.0
7.6000000000000005 0.9 0.0
8.0 0.9 0.0
8.4 0.9 0.0
8.8 0.9 0.0
9.200000000000001 0.9 0.0
9.600000000000001 0.9 0.0
10.0 0.9 0.0
10.4 0.9 0.0
10.8 0.9 0.0
11.200000000000001 0.9 0.0
11.600000000000001 0.9 0.0
12.0 0.9 0.0
12.4 0.9 0.0
12.8 0.9 0.0
13.200000000000001 0.9 0.0
13.600000000000001 0.9 0.0
14.0 0.9 0.0
14.4 0.9 0.0
14.8 0.9 0.0
15.200000000000001 0.9 0.0
15.600000000000001 0.9 0.0
16.0 0.9 0.0
0.0 1.0 0.0
0.4 1.0 0.0
0.8 1.0 0.0
1.2000000000000002 1.0 0.0
1.6 1.0 0.0
2.0 1.0 0.0
2.4000000000000004 1.0 0.0
2.8000000000000003 1.0 0.0
3.2 1.0 0.0
3.6 1.0 0.0
4.0 1.0 0.0
4.4 1.0 0.0
4.800000000000001 1.0 0.0
5.2 1.0 0.0
5.6000000000000005 1.0 0.0
6.0 1.0 0.0
6.4 1.0 0.0
6.800000000000001 1.0 0.0
7.2 1.0 0.0
7.6000000000000005 1.0 0.0
8.0 1.0 0.0
8.4 1.0 0.0
8.8 1.0 0.0
9.200000000000001 1.0 0.0
9.600000000000001 1.0 0.0
10.0 1.0 0.0
10.4 1.0 0.0
10.8 1.0 0.0
11.200000000000001 1.0 0.0
11.600000000000001 1.0 0.0
12.0 1.0 0.0
12.4 1.0 0.0
12.8 1.0 0.0
13.200000000000001 1.0 0.0
13.600000000000001 1.0 0.0
14.0 1.0 0.0
14.4 1.0 0.0
14.8 1.0 0.0
15.200000000000001 1.0 0.0
15.600000000000001 1.0 0.0
16.0 1.0 0.0
0.0 1.1 0.0
0.4 1.1 0.0
0.8 1.1 0.0
1.2000000000000002 1.1 0.0
1.6 1.1 0.0
[...]
POINT_DATA 861
SCALARS Disp float 2
LOOKUP_TABLE default
0.0 0.0
0.005761497476400312 -0.24591300249478457
0.007077768775351228 -0.4826807178402762
0.007860843510982036 -0.7184114419074077
0.008869629438823632 -0.9537798577119039
0.010494304087006879 -1.188382432854839
0.013342288689018355 -1.4216829935050717
0.018152781259444674 -1.653006884452507
0.025795302890426638 -1.8815113362493796
0.037217876128774176 -2.1061003579599418
0.05336829776216762 -2.3252961666887533
0.07514307909522515 -2.5371595963440963
0.10336369409916105 -2.7393136386070087
0.13876797955838902 -2.929054483442634
0.18200788167402293 -3.1034337315844387
0.23358245710680428 -3.2593224511634653
0.29371549780548384 -3.393492206462361
0.3622073129917557 -3.5027467451033703
0.43830685706973843 -3.5841399827366422
0.520657406118746 -3.6352220868913343
0.6070990928054927 -3.654323557933457
0.6935407794922348 -3.6352220868912193
0.7758913285412244 -3.584139982736411
0.8519908726191775 -3.5027467451030345
0.9204826878054115 -3.39349220646194
0.9806157285040497 -3.259322451162985
1.0321903039367897 -3.1034337315839124
1.0754302060523824 -2.929054483442077
1.1108344915115695 -2.739313638606438
1.1390551065154655 -2.5371595963435305
1.1608298878484875 -2.3252961666882066
1.1769803094818525 -2.106100357959429
1.188402882720178 -1.8815113362489049
1.1960454043511428 -1.6530068844520787
1.200855896921558 -1.421682993504694
1.2037038815235623 -1.1883824328545187
1.2053285561717426 -0.9537798577116416
1.2063373420995835 -0.7184114419072067
1.2071204168352139 -0.4826807178401352
1.2084366881341633 -0.24591300249470652
1.2141981856105601 0.0
0.06134011362369725 -0.002400222169398744
0.06536661701589232 -0.24617337871698922
0.06605430920184768 -0.482742655615147
0.06674881392497266 -0.718500668075336
0.06763418211521291 -0.9539233732183402
0.06901592876757129 -1.1886989249695321
0.07146519030845157 -1.4223391059638215
0.07568012036802545 -1.6542015893995272
0.08247757924586971 -1.883466947208177
0.09272349419210471 -2.1090433645338216
0.10726362448524245 -2.3294431423181865
0.12688260868302348 -2.542711015867265
0.15230383063842154 -2.7464535655433227
0.18419837290906033 -2.9379500693994407
0.22316198086176045 -3.1142278663077834
0.26966026583967795 -3.272110779617469
0.3239184421919689 -3.408289406944488
0.3857894892605278 -3.5194520461271397
0.4546322908948311 -3.6025094427834365
0.5291639287008673 -3.654843738234625
0.6070990928054787 -3.6744622219112415
0.6850342569100855 -3.6548437382345074
0.759565894716105 -3.602509442783199
0.8284086963503822 -3.519452046126796
0.8902797434189081 -3.4082894069440575
0.9445379197711625 -3.272110779616979
0.9910362047490426 -3.114227866307248
1.0299998127017056 -2.9379500693988736
1.0618943549723077 -2.7464535655427422
1.0873155769276697 -2.54271101586669
1.1069345611254189 -2.3294431423176327
1.1214746914185307 -2.109043364533302
1.1317206063647456 -1.8834669472076981
1.1385180652425746 -1.6542015893990953
1.1427329953021381 -1.4223391059634418
1.1451822568430126 -1.188698924969211
1.1465640034953684 -0.9539233732180777
1.147449371685608 -0.718500668075135
1.1481438764087326 -0.48274265561500607
1.148831568594688 -0.24617337871691086
1.1528580719868775 -0.002400222169396234
0.12170449095452214 -0.004305143792520008
0.12465645352717564 -0.24630240470133902
0.1250506990026478 -0.48277567447052594
0.12561735018977357 -0.7185792707689358
0.1263889734985766 -0.9540380310914567
0.1275524946106462 -1.1889493361545818
0.12961243553955729 -1.4228822460238602
0.13323459619102584 -1.6552259318928702
0.1391725196556485 -1.8851791167950065
0.14821284850743655 -2.1116478973240684
0.1611040094690665 -2.3331307480375094
0.17852858516198888 -2.5476560895914346
0.2011142053764051 -2.752818723913421
0.22945263737882818 -2.9458872890854235
0.26408776143088825 -3.1238684788662723
0.3054522255167695 -3.283546188095805
0.3537825076912134 -3.421542194525414
0.4090008932786631 -3.5344430485231535
0.4705684378584749 -3.619022981263521
0.5372709639048109 -3.672463699177898
0.607099092805465 -3.692549035045696
0.6769272217061149 -3.672463699177778
0.7436297477524356 -3.619022981263278
0.8051972923322243 -3.534443048522803
0.8604156779196456 -3.4215421945249758
0.9087459600940568 -3.2835461880953063
0.9501104241799049 -3.123868478865728
0.9847455482319316 -2.9458872890848484
1.0130839802343221 -2.752818723912832
1.035669600448707 -2.5476560895908515
1.0530941761416008 -2.333130748036949
1.0659853371032078 -2.1116478973235435
1.0750256659549773 -1.8851791167945235
1.0809635894195864 -1.6552259318924356
1.0845857500710459 -1.4228822460234787
1.086645690999952 -1.1889493361542598
1.0878092121120198 -0.954038031091194
1.0885808354208222 -0.7185792707687348
1.089147486607948 -0.48277567447038516
1.08954173208342 -0.24630240470126027
1.0924936946560682 -0.00430514379251474
0.18155431607680883 -0.005835873505901078
0.18378457835998188 -0.2463903350138221
0.18402504942104742 -0.48279393094410145
0.18446838946170374 -0.7186429290407295
0.18512896478121343 -0.9541317223523486
0.18610062793092405 -1.1891415934477356
0.18779385940099266 -1.4233162960543129
0.19083020398333678 -1.65608104132886
0.19590376410010044 -1.886644727217875
0.20372156674598343 -2.1139080828701604
0.21493938137857502 -2.33635176137796
0.23014195529624498 -2.551988152799182
0.2498654873565995 -2.7584023785889693
0.2746211286392168 -2.9528570056697188
0.3048890508127374 -3.132344642843727
0.341076044917931 -3.293617199042534
0.3834338440984518 -3.4332405434505717
0.4319531518163613 -3.5477128506402806
0.48620440763035616 -3.63367383876858
0.5451539306280275 -3.688125632643403
0.6070990928054518 -3.708682291349284
0.6690442549828719 -3.6881256326432807
0.7279937779805299 -3.633673838768333
0.782245033794504 -3.5477128506399236
0.8307643415123889 -3.4332405434501267
0.8731221406928813 -3.2936171990420275
0.9093091347980454 -3.1323446428431754
0.939577056971537 -2.9528570056691357
0.9643326982541256 -2.7584023785883733
0.9840562303144528 -2.5519881527985917
0.9992588042320981 -2.336351761377393
1.0104766188646692 -2.11390808286963
1.0182944215105358 -1.886644727217388
1.0233679816272878 -1.6560810413284226
1.0264043262096239 -1.4233162960539298
1.0280975576796885 -1.1891415934474132
1.029069220829398 -0.9541317223520858
1.0297297961489074 -0.7186429290405286
1.0301731361895636 -0.4827939309439607
1.0304136072506291 -0.246390335013743
1.0326438695337972 -0.00583587350589332
0.24111043693432627 -0.0070726278078811575
0.24280167571450384 -0.24645887184417828
0.24295857133605875 -0.48280442183462524
0.2432979377271137 -0.718692332140081
0.2438505623592004 -0.9542083263064869
0.2446524683794662 -1.1892873973915936
0.24601610986931596 -1.4236491658916823
0.2484801132774531 -1.6567697909642414
0.2526951858962453 -1.887863980852345
0.2592854276404326 -2.115821382342704
0.2688181917432609 -2.339102674498468
0.2817851387733867 -2.555703170315312
0.29863061196367957 -2.763200555803724
0.3197861655842735 -2.958854883450019
0.3456719286816948 -3.139649926500238
0.37665520931978036 -3.302315476104168
0.4129996970814822 -3.4433742982706645
0.4547664880256077 -3.5592494755284347
0.5016670988287255 -3.646462873898471
0.5529048026835222 -3.701862285717338
0.6070990928054388 -3.7229161550461054
0.6612933829273515 -3.701862285717214
0.7125310867821363 -3.6464628738982197
0.7594316975852359 -3.5592494755280724
0.8011984885293404 -3.443374298270214
0.8375429762910176 -3.3023154761036553
0.8685262569290776 -3.1396499264996796
0.8944120200264741 -2.9588548834494293
0.9155675736470433 -2.7632005558031216
0.932413046837313 -2.5557031703147164
0.9453799938674178 -2.339102674497897
0.9549127579702286 -2.1158213823421694
0.9615029997144018 -1.887863980851855
0.9657180723331836 -1.6567697909638022
0.9681820757413144 -1.4236491658912982
0.9695457172311611 -1.1892873973912708
0.970347623251426 -0.9542083263062241
0.9709002478835125 -0.7186923321398802
0.9712396142745675 -0.4828044218344846
0.9713965098961224 -0.2464588718440989
0.9730877486762957 -0.007072627807871225
0.30047253146972763 -0.00806596012971471
0.30174119272186745 -0.24651543901550144
0.3018494830183109 -0.4828118878637571
0.302103032496791 -0.7187289292394655
0.30254987130954325 -0.9542707675837689
0.3032019251499112 -1.1893970319504779
0.30427177692625185 -1.4238940674004155
0.30620403150888625 -1.6572980354230786
0.3095707974144965 -1.8888398176529024
0.3149403695223663 -2.117388832177832
0.32278907550490293 -2.3413831662900018
0.3335184968636138 -2.558800683127021
0.34748470760013345 -2.7672125728747323
0.3650384096102049 -2.963879883830226
0.3865350068986633 -3.145783173405306
0.4123088095697054 -3.309637131600735
0.44261697202508943 -3.4519340108801475
0.4775797629669128 -3.569040840802564
0.5170792905152803 -3.657386936508511
0.5605986493886101 -3.7136899806281405
0.6070990928054258 -3.735282701537825
0.6535995362222377 -3.7136899806280144
0.6971188950955571 -3.6573869365082565
0.7366184226439093 -3.5690408408021965
0.7715812135857149 -3.4519340108796914
0.801889376041078 -3.309637131600217
0.8276631787120985 -3.1457831734047406
0.8491597760005364 -2.9638798838296303
0.8667134780105873 -2.7672125728741244
0.8806796887470876 -2.55880068312642
0.8914091101057809 -2.341383166289426
0.8992578160883031 -2.117388832177294
0.9046273881961611 -1.8888398176524097
0.9079941541017631 -1.6572980354226379
0.9099264086843926 -1.4238940674000304
0.9109962604607309 -1.189397031950155
0.9116483143010983 -0.954270767583506
0.9120951531138504 -0.7187289292392647
0.9123487025923304 -0.4828118878636164
0.9124569928887738 -0.2465154390154219
0.9137256541409102 -0.008065960129702886
0.3596930130152538 -0.00885455450867548
0.36062614251798597 -0.24656286140664854
0.360702896005869 -0.48281872799509046
0.3608834422719029 -0.718754161650011
0.3612259967672684 -0.954320499127861
0.36174172085201084 -1.1894789801787866
0.3625516736826711 -1.4240666993036155
0.3639996301804719 -1.657680189915702
0.3665587380546184 -1.8895785458624346
0.3707232382711485 -2.118614775759791
0.3769016612230037 -2.343196655153741
0.38540475696420157 -2.5612836842111064
0.39650268372601244 -2.7704416444204782
0.4104668321055561 -2.967935252755927
0.42758768505264944 -3.1507466122560315
0.44815553272520875 -3.3155828862797154
0.4724197934134898 -3.458914905592069
0.5005450033369926 -3.5770749895600953
0.5325751125602937 -3.6664344909746704
0.5683107775193095 -3.7236083314755914
0.6070990928054125 -3.745795685836046
0.6458874080915123 -3.7236083314754636
0.6816230730505194 -3.666434490974413
0.7136531822738079 -3.577074989559724
0.741778392197296 -3.458914905591608
0.7660426528855598 -3.315582886279192
0.7866105005581014 -3.150746612255462
0.8037313535051787 -2.9679352527553275
0.8176955018847062 -2.7704416444198663
0.828793428646502 -2.5612836842105016
0.8372965243876858 -2.3431966551531613
0.8434749473395294 -2.1186147757592497
0.8476394475560501 -1.8895785458619392
0.8501985554301901 -1.6576801899152602
0.8516465119279875 -1.42406669930323
0.8524564647586461 -1.1894789801784635
0.8529721888433882 -0.9543204991275981
0.8533147433387536 -0.7187541616498101
0.8534952896047873 -0.48281872799494985
0.8535720430926703 -0.24656286140656877
0.8545051725953999 -0.008854554508662148
0.4188069691605842 -0.009469479286789796
0.419473728386654 -0.2466033169800122
0.4195262003829471 -0.4828254508058086
0.4196409727307952 -0.7187693394574822
0.4198807978154985 -0.9543573546419459
0.4202646638650085 -1.1895397305306836
0.42085029577760785 -1.4241817508524566
0.4218621223129314 -1.6579356858893868
0.42367144686324687 -1.8900952090359344
0.42667485516641823 -2.11950791861922
0.4312079411975524 -2.3445502475559996
0.4375070272062258 -2.563159048320234
0.44576208436810527 -2.772895243377372
0.4561644752539244 -2.9710287305081753
0.4689349858978072 -3.154547481264417
0.48431915213522236 -3.3201577991141664
0.5025510687127304 -3.464317503882295
0.5238178933989693 -3.5833424565231953
0.5483000918128599 -3.6735854102434877
0.576126550647512 -3.7315985878801103
0.6070990928053986 -3.7544501915215345
0.6380716349632836 -3.731598587879981
0.6658980937979285 -3.673585410243228
0.6903802922118096 -3.5833424565228214
0.7116471168980366 -3.4643175038818312
0.7298790334755314 -3.3201577991136393
0.7452631997129331 -3.1545474812638443
0.7580337103568039 -2.971028730507572
0.7684361012426116 -2.7728952433767566
0.7766911584044799 -2.563159048319626
0.7829902444131429 -2.344550247555418
0.7875233304442683 -2.1195079186186763
0.7905267387474328 -1.8900952090354375
0.7923360632977439 -1.6579356858889438
0.793347889833065 -1.4241817508520709
0.7939335217456636 -1.1895397305303606
0.7943173877951731 -0.954357354641683
0.7945572128798762 -0.7187693394572812
0.7946719852277242 -0.4828254508056678
0.7947244572240174 -0.24660331697993237
0.7953912164500853 -0.009469479286775235
0.4778357740883841 -0.009939999688535752
0.47829996821292514 -0.24663873145958326
0.47832619302865614 -0.48283124341437444
0.47837879399206057 -0.718775502278434
0.4785184977701457 -0.9543806567696277
0.47876767100674605 -1.1895824369265582
0.4791526412349205 -1.4242545314544226
0.4797855683527736 -1.65808740516605
0.48091233363391883 -1.8904135941965534
0.48282279697506253 -2.1200862623113896
0.4857615545219232 -2.3454567267582203
0.48989561325976094 -2.5644386712435154
0.4953438630391298 -2.7745858694508256
0.5022256259467661 -2.9731736240577984
0.5106892067794232 -3.157198255190783
0.5209237469229591 -3.3233723155753743
0.5331471781721865 -3.4681497815545046
0.5475702646616277 -3.5878395365237403
0.5644313397905468 -3.6788129396219644
0.5841530320986555 -3.7376212914458207
0.6070990928053844 -3.76122040438676
0.6300451535121124 -3.73762129144569
0.6497668458202164 -3.678812939621703
0.6666279209491286 -3.587839536523364
0.6810510074385613 -3.4681497815540383
0.6932744386877796 -3.3233723155748445
0.7035089788313065 -3.1571982551902074
0.7119725596639561 -2.973173624057193
0.7188543225715853 -2.7745858694502084
0.7243025723509471 -2.564438671242906
0.728436631088778 -2.3454567267576363
0.7313753886356329 -2.120086262310845
0.7332858519767728 -1.8904135941960556
0.7344126172579152 -1.6580874051656065
0.7350455443757669 -1.4242545314540367
0.7354305146039409 -1.1895824369262353
0.7356796878405409 -0.9543806567693646
0.735819391618626 -0.718775502278233
0.7358719925820304 -0.48283124341423367
0.7358982173977612 -0.24663873145950344
0.7363624115223011 -0.009939999688520232
0.5367944106335533 -0.010295632541524801
0.5371140311120897 -0.24667157307126544
0.5371091305896145 -0.48283434213610665
0.5371010027563855 -0.7187734148861511
0.537143505097418 -0.9543902444962037
0.5372545619653595 -1.189606657876555
0.5374442202450797 -1.424296136214297
0.5377514176959058 -1.6581626001565661
0.5382763208095009 -1.8905679290964414
0.539182569528952 -2.120381343593269
0.5406048694298916 -2.3459416291631126
0.5426366867097389 -2.565144186871645
0.5453292051787259 -2.775534110034031
0.5487403469926052 -2.9743915570149424
0.5529510058014083 -3.1587204086132274
0.5580831849993498 -3.3252444462066184
0.5643226988620942 -3.4704265637526963
0.5719191050453708 -3.5905781784895057
0.5811642726128717 -3.6820964524523556
0.5925546966940838 -3.7416128577876173
0.6070990928053699 -3.7660506348159073
0.6216434889166559 -3.7416128577874863
0.6330339129978655 -3.682096452452093
0.6422790805653622 -3.5905781784891286
0.6498754867486336 -3.4704265637522282
0.6561150006113735 -3.3252444462060877
0.6612471798093111 -3.15872040861265
0.6654578386181113 -2.9743915570143353
0.6688689804319878 -2.775534110033413
0.6715614989009717 -2.565144186871034
0.673593316180816 -2.3459416291625272
0.675015616081753 -2.1203813435927237
0.6759218648012026 -1.8905679290959434
0.6764467679147966 -1.6581626001561223
0.6767539653656224 -1.4242961362139108
0.6769436236453424 -1.1896066578762314
0.6770546805132837 -0.9543902444959407
0.6770971828543161 -0.7187734148859499
0.6770890550210872 -0.4828343421359659
0.6770841544986119 -0.2466715730711856
0.6774037749771475 -0.010295632541508613
0.5956997974122563 -0.010561861938717481
0.5959176609077876 -0.2467046053549434
0.5958800548063463 -0.48283297696839067
0.5958121179549748 -0.7187635725241244
0.5957599584630292 -0.954386271996308
0.5957333412721665 -1.1896115737844917
0.595723197233152 -1.4243092392110828
0.5957197672913337 -1.6581856195923936
0.5957187338519887 -1.8906090861692528
0.5957187314690837 -2.120456096714676
0.595718892555168 -2.346065197554565
0.5957179418589744 -2.565329097020617
0.5957104541934745 -2.7757907392160655
0.5956932491819912 -2.974731351767988
0.5956780535695276 -3.159161020445297
0.5957235749672986 -3.3258165729567306
0.595980685120327 -3.4711829989856184
0.5967427138913464 -3.5915959819238874
0.5984267836879265 -3.6834675040279734
0.6014972761676616 -3.743514880041318
0.6070990928053548 -3.7688483496316914
0.6127009094430489 -3.743514880041187
0.6157714019227831 -3.68346750402771
0.6174554717193622 -3.5915959819235086
0.6182175004903808 -3.4711829989851504
0.6184746106434101 -3.325816572956199
0.6185201320411817 -3.1591610204447194
0.6185049364287194 -2.974731351767381
0.6184877314172378 -2.775790739215447
0.6184802437517392 -2.565329097020006
0.6184792930555468 -2.34606519755398
0.6184794541416319 -2.1204560967141304
0.6184794517587274 -1.890609086168755
0.6184784183193828 -1.65818561959195
0.6184749883775645 -1.424309239210697
0.6184648443385503 -1.1896115737841684
0.6184382271476876 -0.9543862719960451
0.618386067655742 -0.7187635725239232
0.6183181308043705 -0.4828329769682499
0.6182805247029292 -0.2467046053548636
0.61849838819846 -0.01056186193870085
0.6545629877863539 -0.010763344195526088
0.654710592392305 -0.2467378279228545
0.6546431222482907 -0.482826697229918
0.6545171142698168 -0.7187461418686097
0.6543730302861495 -0.9543691556411424
0.654210917364445 -1.189597004624238
0.6540015939631987 -1.4242935797356433
0.6536875353640866 -1.6581619416603897
0.6531607690271928 -1.8905678076372128
0.6522548275311095 -2.120381364136294
0.6508332526494977 -2.345941632674813
0.6487982323998898 -2.56514227824575
0.646089967037447 -2.7755282914609936
0.642645123122472 -2.9743826320752067
0.6384076834564185 -3.1587222566433395
0.633371643020131 -3.3253016926252426
0.6276393783303681 -3.4706365723889125
0.6214875817577795 -3.5911050862647262
0.615367342717995 -3.6831263823311984
0.6099318707900568 -3.7434423304348026
0.6070990928053397 -3.769715148120871
0.604266314820622 -3.743442330434671
0.598830842892684 -3.683126382330935
0.592710603852903 -3.591105086264348
0.5865588072803194 -3.470636572388446
0.5808265425905627 -3.325301692624711
0.5757905021542805 -3.1587222566427626
0.5715530624882326 -2.9743826320746005
0.5681082185732633 -2.775528291460376
0.5653999532108266 -2.565142278245139
0.5633649329612241 -2.345941632674228
0.5619433580796166 -2.1203813641357487
0.561037416583536 -1.890567807636715
0.5605106502466437 -1.658161941659946
0.5601965916475325 -1.4242935797352572
0.5599872682462866 -1.1895970046239146
0.5598251553245824 -0.9543691556408794
0.5596810713409152 -0.7187461418684086
0.5595550633624414 -0.48282669722977717
0.5594875932184271 -0.24673782792277482
0.559635197824378 -0.010763344195509218
0.713396491321067 -0.0109175104767875
0.7134963813407527 -0.24676933686760572
0.7134022104707145 -0.48281591167548943
0.7132211927948792 -0.7187213148953149
0.7129886032328865 -0.9543395022332055
0.7126944861985075 -1.1895633903157667
0.7122907629129754 -1.4242493388549033
0.7116514781699503 -1.6580859311918987
0.7105239988782627 -1.8904134138953381
0.7086148668405235 -2.1200864853226977
0.7056762854894021 -2.3454563807702367
0.7015381690701897 -2.5644345076836057
0.6960758993542233 -2.774573998501275
0.6891659274203272 -2.973156027386527
0.6806829608038348 -3.1572032318710854
0.6705458462155871 -3.3234895793006656
0.6588022466569431 -3.4685692097920526
0.6457012502931665 -3.5888710715029224
0.6317616085533628 -3.6808708429145875
0.6181168314105743 -3.74150696325423
0.6070990928053249 -3.768823770838283
0.5960813542000754 -3.741506963254099