# vtk DataFile Version 3.0
Some data
ASCII
DATASET UNSTRUCTURED_GRID
POINTS 861 float
0.0 0.0 0.0
0.4 0.0 0.0
0.8 0.0 0.0
1.2000000000000002 0.0 0.0
1.6 0.0 0.0
2.0 0.0 0.0
2.4000000000000004 0.0 0.0
2.8000000000000003 0.0 0.0
3.2 0.0 0.0
3.6 0.0 0.0
4.0 0.0 0.0
4.4 0.0 0.0
4.800000000000001 0.0 0.0
5.2 0.0 0.0
5.6000000000000005 0.0 0.0
6.0 0.0 0.0
6.4 0.0 0.0
6.800000000000001 0.0 0.0
7.2 0.0 0.0
7.6000000000000005 0.0 0.0
8.0 0.0 0.0
8.4 0.0 0.0
8.8 0.0 0.0
9.200000000000001 0.0 0.0
9.600000000000001 0.0 0.0
10.0 0.0 0.0
10.4 0.0 0.0
10.8 0.0 0.0
11.200000000000001 0.0 0.0
11.600000000000001 0.0 0.0
12.0 0.0 0.0
12.4 0.0 0.0
12.8 0.0 0.0
13.200000000000001 0.0 0.0
13.600000000000001 0.0 0.0
14.0 0.0 0.0
14.4 0.0 0.0
14.8 0.0 0.0
15.200000000000001 0.0 0.0
15.600000000000001 0.0 0.0
16.0 0.0 0.0
0.0 0.1 0.0
0.4 0.1 0.0
0.8 0.1 0.0
1.2000000000000002 0.1 0.0
1.6 0.1 0.0
2.0 0.1 0.0
2.4000000000000004 0.1 0.0
2.8000000000000003 0.1 0.0
3.2 0.1 0.0
3.6 0.1 0.0
4.0 0.1 0.0
4.4 0.1 0.0
4.800000000000001 0.1 0.0
5.2 0.1 0.0
5.6000000000000005 0.1 0.0
6.0 0.1 0.0
6.4 0.1 0.0
6.800000000000001 0.1 0.0
7.2 0.1 0.0
7.6000000000000005 0.1 0.0
8.0 0.1 0.0
8.4 0.1 0.0
8.8 0.1 0.0
9.200000000000001 0.1 0.0
9.600000000000001 0.1 0.0
10.0 0.1 0.0
10.4 0.1 0.0
10.8 0.1 0.0
11.200000000000001 0.1 0.0
11.600000000000001 0.1 0.0
12.0 0.1 0.0
12.4 0.1 0.0
12.8 0.1 0.0
13.200000000000001 0.1 0.0
13.600000000000001 0.1 0.0
14.0 0.1 0.0
14.4 0.1 0.0
14.8 0.1 0.0
15.200000000000001 0.1 0.0
15.600000000000001 0.1 0.0
16.0 0.1 0.0
0.0 0.2 0.0
0.4 0.2 0.0
0.8 0.2 0.0
1.2000000000000002 0.2 0.0
1.6 0.2 0.0
2.0 0.2 0.0
2.4000000000000004 0.2 0.0
2.8000000000000003 0.2 0.0
3.2 0.2 0.0
3.6 0.2 0.0
4.0 0.2 0.0
4.4 0.2 0.0
4.800000000000001 0.2 0.0
5.2 0.2 0.0
5.6000000000000005 0.2 0.0
6.0 0.2 0.0
6.4 0.2 0.0
6.800000000000001 0.2 0.0
7.2 0.2 0.0
7.6000000000000005 0.2 0.0
8.0 0.2 0.0
8.4 0.2 0.0
8.8 0.2 0.0
9.200000000000001 0.2 0.0
9.600000000000001 0.2 0.0
10.0 0.2 0.0
10.4 0.2 0.0
10.8 0.2 0.0
11.200000000000001 0.2 0.0
11.600000000000001 0.2 0.0
12.0 0.2 0.0
12.4 0.2 0.0
12.8 0.2 0.0
13.200000000000001 0.2 0.0
13.600000000000001 0.2 0.0
14.0 0.2 0.0
14.4 0.2 0.0
14.8 0.2 0.0
15.200000000000001 0.2 0.0
15.600000000000001 0.2 0.0
16.0 0.2 0.0
0.0 0.30000000000000004 0.0
0.4 0.30000000000000004 0.0
0.8 0.30000000000000004 0.0
1.2000000000000002 0.30000000000000004 0.0
1.6 0.30000000000000004 0.0
2.0 0.30000000000000004 0.0
2.4000000000000004 0.30000000000000004 0.0
2.8000000000000003 0.30000000000000004 0.0
3.2 0.30000000000000004 0.0
3.6 0.30000000000000004 0.0
4.0 0.30000000000000004 0.0
4.4 0.30000000000000004 0.0
4.800000000000001 0.30000000000000004 0.0
5.2 0.30000000000000004 0.0
5.6000000000000005 0.30000000000000004 0.0
6.0 0.30000000000000004 0.0
6.4 0.30000000000000004 0.0
6.800000000000001 0.30000000000000004 0.0
7.2 0.30000000000000004 0.0
7.6000000000000005 0.30000000000000004 0.0
8.0 0.30000000000000004 0.0
8.4 0.30000000000000004 0.0
8.8 0.30000000000000004 0.0
9.200000000000001 0.30000000000000004 0.0
9.600000000000001 0.30000000000000004 0.0
10.0 0.30000000000000004 0.0
10.4 0.30000000000000004 0.0
10.8 0.30000000000000004 0.0
11.200000000000001 0.30000000000000004 0.0
11.600000000000001 0.30000000000000004 0.0
12.0 0.30000000000000004 0.0
12.4 0.30000000000000004 0.0
12.8 0.30000000000000004 0.0
13.200000000000001 0.30000000000000004 0.0
13.600000000000001 0.30000000000000004 0.0
14.0 0.30000000000000004 0.0
14.4 0.30000000000000004 0.0
14.8 0.30000000000000004 0.0
15.200000000000001 0.30000000000000004 0.0
15.600000000000001 0.30000000000000004 0.0
16.0 0.30000000000000004 0.0
0.0 0.4 0.0
0.4 0.4 0.0
0.8 0.4 0.0
1.2000000000000002 0.4 0.0
1.6 0.4 0.0
2.0 0.4 0.0
2.4000000000000004 0.4 0.0
2.8000000000000003 0.4 0.0
3.2 0.4 0.0
3.6 0.4 0.0
4.0 0.4 0.0
4.4 0.4 0.0
4.800000000000001 0.4 0.0
5.2 0.4 0.0
5.6000000000000005 0.4 0.0
6.0 0.4 0.0
6.4 0.4 0.0
6.800000000000001 0.4 0.0
7.2 0.4 0.0
7.6000000000000005 0.4 0.0
8.0 0.4 0.0
8.4 0.4 0.0
8.8 0.4 0.0
9.200000000000001 0.4 0.0
9.600000000000001 0.4 0.0
10.0 0.4 0.0
10.4 0.4 0.0
10.8 0.4 0.0
11.200000000000001 0.4 0.0
11.600000000000001 0.4 0.0
12.0 0.4 0.0
12.4 0.4 0.0
12.8 0.4 0.0
13.200000000000001 0.4 0.0
13.600000000000001 0.4 0.0
14.0 0.4 0.0
14.4 0.4 0.0
14.8 0.4 0.0
15.200000000000001 0.4 0.0
15.600000000000001 0.4 0.0
16.0 0.4 0.0
0.0 0.5 0.0
0.4 0.5 0.0
0.8 0.5 0.0
1.2000000000000002 0.5 0.0
1.6 0.5 0.0
2.0 0.5 0.0
2.4000000000000004 0.5 0.0
2.8000000000000003 0.5 0.0
3.2 0.5 0.0
3.6 0.5 0.0
4.0 0.5 0.0
4.4 0.5 0.0
4.800000000000001 0.5 0.0
5.2 0.5 0.0
5.6000000000000005 0.5 0.0
6.0 0.5 0.0
6.4 0.5 0.0
6.800000000000001 0.5 0.0
7.2 0.5 0.0
7.6000000000000005 0.5 0.0
8.0 0.5 0.0
8.4 0.5 0.0
8.8 0.5 0.0
9.200000000000001 0.5 0.0
9.600000000000001 0.5 0.0
10.0 0.5 0.0
10.4 0.5 0.0
10.8 0.5 0.0
11.200000000000001 0.5 0.0
11.600000000000001 0.5 0.0
12.0 0.5 0.0
12.4 0.5 0.0
12.8 0.5 0.0
13.200000000000001 0.5 0.0
13.600000000000001 0.5 0.0
14.0 0.5 0.0
14.4 0.5 0.0
14.8 0.5 0.0
15.200000000000001 0.5 0.0
15.600000000000001 0.5 0.0
16.0 0.5 0.0
0.0 0.6000000000000001 0.0
0.4 0.6000000000000001 0.0
0.8 0.6000000000000001 0.0
1.2000000000000002 0.6000000000000001 0.0
1.6 0.6000000000000001 0.0
2.0 0.6000000000000001 0.0
2.4000000000000004 0.6000000000000001 0.0
2.8000000000000003 0.6000000000000001 0.0
3.2 0.6000000000000001 0.0
3.6 0.6000000000000001 0.0
4.0 0.6000000000000001 0.0
4.4 0.6000000000000001 0.0
4.800000000000001 0.6000000000000001 0.0
5.2 0.6000000000000001 0.0
5.6000000000000005 0.6000000000000001 0.0
6.0 0.6000000000000001 0.0
6.4 0.6000000000000001 0.0
6.800000000000001 0.6000000000000001 0.0
7.2 0.6000000000000001 0.0
7.6000000000000005 0.6000000000000001 0.0
8.0 0.6000000000000001 0.0
8.4 0.6000000000000001 0.0
8.8 0.6000000000000001 0.0
9.200000000000001 0.6000000000000001 0.0
9.600000000000001 0.6000000000000001 0.0
10.0 0.6000000000000001 0.0
10.4 0.6000000000000001 0.0
10.8 0.6000000000000001 0.0
11.200000000000001 0.6000000000000001 0.0
11.600000000000001 0.6000000000000001 0.0
12.0 0.6000000000000001 0.0
12.4 0.6000000000000001 0.0
12.8 0.6000000000000001 0.0
13.200000000000001 0.6000000000000001 0.0
13.600000000000001 0.6000000000000001 0.0
14.0 0.6000000000000001 0.0
14.4 0.6000000000000001 0.0
14.8 0.6000000000000001 0.0
15.200000000000001 0.6000000000000001 0.0
15.600000000000001 0.6000000000000001 0.0
16.0 0.6000000000000001 0.0
0.0 0.7000000000000001 0.0
0.4 0.7000000000000001 0.0
0.8 0.7000000000000001 0.0
1.2000000000000002 0.7000000000000001 0.0
1.6 0.7000000000000001 0.0
2.0 0.7000000000000001 0.0
2.4000000000000004 0.7000000000000001 0.0
2.8000000000000003 0.7000000000000001 0.0
3.2 0.7000000000000001 0.0
3.6 0.7000000000000001 0.0
4.0 0.7000000000000001 0.0
4.4 0.7000000000000001 0.0
4.800000000000001 0.7000000000000001 0.0
5.2 0.7000000000000001 0.0
5.6000000000000005 0.7000000000000001 0.0
6.0 0.7000000000000001 0.0
6.4 0.7000000000000001 0.0
6.800000000000001 0.7000000000000001 0.0
7.2 0.7000000000000001 0.0
7.6000000000000005 0.7000000000000001 0.0
8.0 0.7000000000000001 0.0
8.4 0.7000000000000001 0.0
8.8 0.7000000000000001 0.0
9.200000000000001 0.7000000000000001 0.0
9.600000000000001 0.7000000000000001 0.0
10.0 0.7000000000000001 0.0
10.4 0.7000000000000001 0.0
10.8 0.7000000000000001 0.0
11.200000000000001 0.7000000000000001 0.0
11.600000000000001 0.7000000000000001 0.0
12.0 0.7000000000000001 0.0
12.4 0.7000000000000001 0.0
12.8 0.7000000000000001 0.0
13.200000000000001 0.7000000000000001 0.0
13.600000000000001 0.7000000000000001 0.0
14.0 0.7000000000000001 0.0
14.4 0.7000000000000001 0.0
14.8 0.7000000000000001 0.0
15.200000000000001 0.7000000000000001 0.0
15.600000000000001 0.7000000000000001 0.0
16.0 0.7000000000000001 0.0
0.0 0.8 0.0
0.4 0.8 0.0
0.8 0.8 0.0
1.2000000000000002 0.8 0.0
1.6 0.8 0.0
2.0 0.8 0.0
2.4000000000000004 0.8 0.0
2.8000000000000003 0.8 0.0
3.2 0.8 0.0
3.6 0.8 0.0
4.0 0.8 0.0
4.4 0.8 0.0
4.800000000000001 0.8 0.0
5.2 0.8 0.0
5.6000000000000005 0.8 0.0
6.0 0.8 0.0
6.4 0.8 0.0
6.800000000000001 0.8 0.0
7.2 0.8 0.0
7.6000000000000005 0.8 0.0
8.0 0.8 0.0
8.4 0.8 0.0
8.8 0.8 0.0
9.200000000000001 0.8 0.0
9.600000000000001 0.8 0.0
10.0 0.8 0.0
10.4 0.8 0.0
10.8 0.8 0.0
11.200000000000001 0.8 0.0
11.600000000000001 0.8 0.0
12.0 0.8 0.0
12.4 0.8 0.0
12.8 0.8 0.0
13.200000000000001 0.8 0.0
13.600000000000001 0.8 0.0
14.0 0.8 0.0
14.4 0.8 0.0
14.8 0.8 0.0
15.200000000000001 0.8 0.0
15.600000000000001 0.8 0.0
16.0 0.8 0.0
0.0 0.9 0.0
0.4 0.9 0.0
0.8 0.9 0.0
1.2000000000000002 0.9 0.0
1.6 0.9 0.0
2.0 0.9 0.0
2.4000000000000004 0.9 0.0
2.8000000000000003 0.9 0.0
3.2 0.9 0.0
3.6 0.9 0.0
4.0 0.9 0.0
4.4 0.9 0.0
4.800000000000001 0.9 0.0
5.2 0.9 0.0
5.6000000000000005 0.9 0.0
6.0 0.9 0.0
6.4 0.9 0.0
6.800000000000001 0.9 0.0
7.2 0.9 0.0
7.6000000000000005 0.9 0.0
8.0 0.9 0.0
8.4 0.9 0.0
8.8 0.9 0.0
9.200000000000001 0.9 0.0
9.600000000000001 0.9 0.0
10.0 0.9 0.0
10.4 0.9 0.0
10.8 0.9 0.0
11.200000000000001 0.9 0.0
11.600000000000001 0.9 0.0
12.0 0.9 0.0
12.4 0.9 0.0
12.8 0.9 0.0
13.200000000000001 0.9 0.0
13.600000000000001 0.9 0.0
14.0 0.9 0.0
14.4 0.9 0.0
14.8 0.9 0.0
15.200000000000001 0.9 0.0
15.600000000000001 0.9 0.0
16.0 0.9 0.0
0.0 1.0 0.0
0.4 1.0 0.0
0.8 1.0 0.0
1.2000000000000002 1.0 0.0
1.6 1.0 0.0
2.0 1.0 0.0
2.4000000000000004 1.0 0.0
2.8000000000000003 1.0 0.0
3.2 1.0 0.0
3.6 1.0 0.0
4.0 1.0 0.0
4.4 1.0 0.0
4.800000000000001 1.0 0.0
5.2 1.0 0.0
5.6000000000000005 1.0 0.0
6.0 1.0 0.0
6.4 1.0 0.0
6.800000000000001 1.0 0.0
7.2 1.0 0.0
7.6000000000000005 1.0 0.0
8.0 1.0 0.0
8.4 1.0 0.0
8.8 1.0 0.0
9.200000000000001 1.0 0.0
9.600000000000001 1.0 0.0
10.0 1.0 0.0
10.4 1.0 0.0
10.8 1.0 0.0
11.200000000000001 1.0 0.0
11.600000000000001 1.0 0.0
12.0 1.0 0.0
12.4 1.0 0.0
12.8 1.0 0.0
13.200000000000001 1.0 0.0
13.600000000000001 1.0 0.0
14.0 1.0 0.0
14.4 1.0 0.0
14.8 1.0 0.0
15.200000000000001 1.0 0.0
15.600000000000001 1.0 0.0
16.0 1.0 0.0
0.0 1.1 0.0
0.4 1.1 0.0
0.8 1.1 0.0
1.2000000000000002 1.1 0.0
1.6 1.1 0.0
[...]
POINT_DATA 861
SCALARS Disp float 2
LOOKUP_TABLE default
0.0 0.0
0.004044120951447368 -0.12120966100266269
0.005021081792857703 -0.23562663002714176
0.005730493811000536 -0.3494097547305349
0.006575452828903596 -0.46290604387321127
0.007731751264329188 -0.575910433871821
0.00948317544723142 -0.6881649640475518
0.012098351636117066 -0.7993823796331958
0.01587364736469238 -0.9092082016599193
0.021125996141609503 -1.0171828598857708
0.028192169216836222 -1.122688835868874
0.037463953650450445 -1.2249044414160128
0.04942074027161637 -1.3227839956232388
0.0646200515646653 -1.4150805988709905
0.0836888489984809 -1.5003724615138152
0.10724405159772758 -1.577084057031116
0.13575164331128864 -1.6435115228182726
0.16935120707827112 -1.6978710207202772
0.20770000595432475 -1.7384223091949103
0.24990181786217364 -1.763689476527419
0.2944719336812288 -1.7726767762874303
0.33904204950028305 -1.7636894765273756
0.381243861408126 -1.738422309194821
0.41959266028416886 -1.6978710207201482
0.4531922240511381 -1.6435115228181107
0.4816998157646848 -1.5770840570309324
0.505255018363918 -1.500372461513613
0.5243238157977191 -1.4150805988707753
0.539523127090753 -1.3227839956230176
0.5514799137119042 -1.224904441415792
0.5607516981455047 -1.1226888358686595
0.5678178712207202 -1.0171828598855677
0.5730702199976285 -0.9092082016597302
0.5768455157261965 -0.7993823796330235
0.579460691915077 -0.6881649640473985
0.5812121160979759 -0.5759104338716897
0.5823684145333998 -0.4629060438731023
0.5832133735513024 -0.34940975473045016
0.583922785569445 -0.23562663002708048
0.5848997464108545 -0.12120966100262649
0.5889438673622993 0.0
0.030252254475612677 -0.001792836506777599
0.03295447258079379 -0.12132127502739175
0.03349405237727905 -0.23569148630143588
0.03413534009241066 -0.34948713095240497
0.034892167278942406 -0.46300501968139457
0.03589919351515531 -0.576088176820894
0.03742957886558732 -0.6884882258469462
0.03974201190702794 -0.7999182719194704
0.043112483570227414 -0.9100308879192666
0.04782407290198468 -1.0183674544829255
0.05417277514818023 -1.1243171935304266
0.06249657835342245 -1.2270761735514817
0.07321356730748163 -1.3256223310635256
0.08683903711323589 -1.418729499514119
0.10395225990370198 -1.504987668767358
0.12513217126611126 -1.5828055866066038
0.15082072310171302 -1.6504232164044754
0.18116264567625504 -1.705959100683316
0.21586936979664342 -1.7475458364058398
0.25412579555264053 -1.7735694663053472
0.2944719336812236 -1.7828545498703015
0.33481807180980544 -1.7735694663053032
0.373074497565797 -1.747545836405749
0.40778122168617625 -1.705959100683184
0.43812314426070686 -1.6504232164043107
0.4638116960962961 -1.5828055866064168
0.48499160745869285 -1.5049876687671526
0.5021048302491461 -1.4187294995139006
0.515730300054887 -1.3256223310633009
0.5264472890089329 -1.2270761735512579
0.5347710922141627 -1.1243171935302092
0.5411197944603482 -1.0183674544827204
0.5458313837920973 -0.9100308879190755
0.5492018554552902 -0.7999182719192967
0.5515142884967261 -0.6884882258467918
0.5530446738471553 -0.5760881768207623
0.5540517000833669 -0.46300501968128555
0.5548085272698983 -0.3494871309523202
0.5554498149850297 -0.23569148630137454
0.555989394781515 -0.12132127502735542
0.5586916128866921 -0.0017928365067755004
0.05975156215357536 -0.0031886454698619978
0.0616779213906787 -0.12136974284070932
0.06199190491589281 -0.23573140382170846
0.06251634526202203 -0.3495579972187204
0.06319117030980753 -0.46308939328223253
0.0640652268298965 -0.5762305224653944
0.06537312306340658 -0.688755927517715
0.06738117191892967 -0.8003750424567051
0.0703400186870583 -0.9107448515746743
0.07450273126291948 -1.0194055759779277
0.08012594728483863 -1.1257509114634547
0.08749940858009717 -1.2289909429180372
0.09698252459883168 -1.3281269595520118
0.10903067383960255 -1.4219570547022744
0.12418030689549182 -1.5090822350970712
0.14296430880705036 -1.5878983094127184
0.16580268933733303 -1.6565957602670802
0.19286073727094596 -1.7132063008196823
0.22391388393649186 -1.7557464349370033
0.25822198637168975 -1.782458061517781
0.29447193368121866 -1.7920202943298569
0.3307218809907462 -1.7824580615177361
0.3650299834259392 -1.7557464349369107
0.39608313009147705 -1.7132063008195482
0.42314117802508017 -1.6565957602669128
0.44597955855535176 -1.5878983094125283
0.46476356046689904 -1.509082235096863
0.4799131935227769 -1.421957054702053
0.4919613427635359 -1.3281269595517842
0.5014444587822587 -1.2289909429178105
0.5088179200775064 -1.125750911463235
0.5144411360994164 -1.0194055759777203
0.5186038486752702 -0.9107448515744816
0.521562695443393 -0.8003750424565302
0.5235707442989119 -0.6887559275175599
0.5248786405324195 -0.5762305224652623
0.5257526970525077 -0.4630893932821235
0.5264275221002929 -0.3495579972186356
0.5269519624464221 -0.2357314038216472
0.5272659459716362 -0.12136974284067274
0.5291923052087357 -0.003188645469857779
0.08885861082652957 -0.004299866539458668
0.09028002923110119 -0.12140267140651104
0.09047190670401577 -0.23575371893657193
0.0908813299410768 -0.34961676531352615
0.09146663954927538 -0.4631637591144635
0.09222557476128827 -0.5763428497160913
0.09332154032141006 -0.6889685954249193
0.09502288107020486 -0.8007537893991946
0.09756648154553506 -0.9113498019214415
0.10117484825765036 -1.0202968046659069
0.10606845814853166 -1.1269898183247147
0.11249034251070444 -1.2306506694871993
0.12074492874609295 -1.3303010244185889
0.13122598597726398 -1.4247639027218533
0.14440783065923 -1.512654540989288
0.16078345415529713 -1.5923578625296615
0.18075161198799294 -1.662023273247397
0.20449978718187609 -1.7196080936098803
0.231873347871608 -1.763020750697666
0.26224565214010315 -1.7903693083334387
0.29447193368121405 -1.8002070745809946
0.32669821522232334 -1.7903693083333931
0.35707051949081414 -1.7630207506975721
0.38444408018053905 -1.719608093609744
0.4081922553744135 -1.6620232732472273
0.4281604132070997 -1.592357862529469
0.44453603670315683 -1.512654540989077
0.4577178813851128 -1.4247639027216294
0.46819893861627354 -1.3303010244183586
0.4764535248516519 -1.23065066948697
0.4828754092138152 -1.1269898183244929
0.4877690191046884 -1.0202968046656977
0.49137738581679724 -0.9113498019212475
0.4939209862921222 -0.8007537893990189
0.4956223270409135 -0.6889685954247635
0.4967182926010334 -0.5763428497159591
0.4974772278130457 -0.4631637591143544
0.49806253742124396 -0.3496167653134414
0.498471960658305 -0.23575371893651073
0.49866383813121967 -0.12140267140647423
0.500085256535788 -0.004299866539452535
0.11773720474709647 -0.005189018429842311
0.11879429304226623 -0.12143337063164462
0.11891855598485296 -0.23576592984015032
0.11922851770357597 -0.34966211632221805
0.11971863371386202 -0.4632287241590312
0.12037006204560267 -0.5764340270492406
0.12128011649953797 -0.6891308692860552
0.12267483764013484 -0.8010555021320069
0.12480241731829662 -0.9118468963009393
0.12785407385186007 -1.021041664676375
0.13201631187391674 -1.1280352254559878
0.13748945213213457 -1.2320573116106441
0.14452211545155394 -1.33214795519124
0.15344510626715904 -1.427153859801656
0.16467237661666434 -1.5157052975193526
0.17863821785400097 -1.596182304247553
0.19572132085106594 -1.6667016174876441
0.21613487985103327 -1.7251583320753208
0.23980103451767407 -1.7693657637227793
0.2662340198094527 -1.797312211702154
0.2944719336812094 -1.8074335199043896
0.3227098475529649 -1.7973122117021079
0.3491428328447393 -1.7693657637226843
0.37280898751137403 -1.7251583320751827
0.3932225465113338 -1.6667016174874725
0.41030564950839044 -1.5961823042473582
0.4242714907457183 -1.5157052975191396
0.4354987610952151 -1.42715385980143
0.44442175191081135 -1.3321479551910078
0.4514544152302221 -1.232057311610413
0.45692755548843195 -1.128035225455764
0.46108979351048157 -1.0210416646761642
0.4641414500440394 -0.9118468963007439
0.4662690297221968 -0.8010555021318302
0.4676637508627908 -0.6891308692858991
0.4685738053167247 -0.5764340270491083
0.4692252336484649 -0.46322872415892213
0.46971534965875067 -0.34966211632213323
0.4700253113774737 -0.23576592984008915
0.47014957432006044 -0.12143337063160763
0.4712066626152274 -0.005189018429834534
0.14646379995819458 -0.005896299313108966
0.14724570003006324 -0.1214652553081254
0.1473292938702114 -0.23577315203800953
0.14755554976941704 -0.349694947922878
0.14794842626817925 -0.4632832931951844
0.14849371763775307 -0.5765090644299445
0.14923906489673736 -0.6892527008731726
0.1503521650667333 -0.8012818477270524
0.15205929452499345 -0.912238089122581
0.15455476325800507 -1.021642098901323
0.1579869184232368 -1.128889004142331
0.16251543020278492 -1.2332141700677899
0.1683367204640953 -1.3336721211517275
0.1757179238790611 -1.4291314876571375
0.18500184047533355 -1.5182391404737776
0.19657218802522494 -1.5993733161524073
0.2107720478752048 -1.670628135574805
0.22782693905436405 -1.729850793366718
0.24775086350525627 -1.774776398214142
0.2702201512339863 -1.803288947894737
0.29447193368120483 -1.8137093589128872
0.3187237161284222 -1.8032889478946899
0.34119300385714835 -1.7747763982140456
0.3611169283080354 -1.7298507933665783
0.37817181948718837 -1.6706281355746317
0.39237167933716105 -1.5993733161522108
0.4039420268870449 -1.518239140473563
0.4132259434833103 -1.4291314876569097
0.42060714689826884 -1.3336721211514933
0.4264284371595722 -1.2332141700675567
0.4309569489391135 -1.1288890041421056
0.4343891041043394 -1.021642098901111
0.4368845728373464 -0.9122380891223846
0.43859170229560296 -0.8012818477268749
0.4397048024655966 -0.6892527008730162
0.4404501497245801 -0.5765090644298121
0.4409954410941535 -0.4632832931950752
0.44138831759291547 -0.3496949479227931
0.4416145734921211 -0.23577315203794835
0.44169816733226924 -0.12146525530808824
0.44248006740413576 -0.005896299313099808
0.1750801611390008 -0.0064531229807098245
0.17565208919033165 -0.12149864375141588
0.17570727970005148 -0.23577805547656078
0.17586155634055722 -0.3497168021948018
0.17615871282087964 -0.4633262862806817
0.17659438778070677 -0.5765707559226123
0.17718715644641797 -0.6893444062900874
0.17804817202975387 -0.8014436522049956
0.1793554497821993 -0.9125257594838615
0.18129269797363085 -1.0221011593575844
0.18399925442835932 -1.1295546773781486
0.18758983436376409 -1.2341254267717388
0.19221185339465724 -1.3348791591299183
0.19806943182764217 -1.4307037245672587
0.20543619623880469 -1.5202618463778623
0.21462736938033714 -1.6019359972041054
0.2259531631530538 -1.673804214810667
0.23964324012352964 -1.7336801834883284
0.25578543348365157 -1.7792441485321437
0.27423906098070683 -1.8082942624278642
0.29447193368120017 -1.8190365319236401
0.3147048063816923 -1.8082942624278164
0.3331584338787443 -1.7792441485320465
0.34930062723886185 -1.7336801834881874
0.36299070420933244 -1.6738042148104924
0.3743164979820433 -1.6019359972039073
0.3835076711235696 -1.520261846377646
0.3908744355347265 -1.4307037245670293
0.3967320139677058 -1.3348791591296825
0.4013540329985934 -1.2341254267715043
0.40494461293399275 -1.1295546773779221
0.40765116938871654 -1.0221011593573712
0.4095884175801444 -0.9125257594836643
0.41089569533258713 -0.8014436522048177
0.4117567109159214 -0.6893444062899307
0.4123494795816321 -0.5765707559224797
0.4127851545414588 -0.46332628628057243
0.4130823110217811 -0.3497168021947169
0.41323658766228677 -0.23577805547649958
0.4132917781720066 -0.12149864375137866
0.41386370622333585 -0.006453122980699564
0.20361506241848565 -0.006884069592514077
0.20402585538036533 -0.12153426438654724
0.20405763707105615 -0.23578131391623716
0.20414746636867018 -0.3497291540735849
0.2043520226234168 -0.4633571332139537
0.20467383111862436 -0.5766193021493378
0.20512171397349152 -0.6894116159817344
0.20575274560953852 -0.8015542364222213
0.20669366882110946 -0.9127201198737871
0.20809083559158706 -1.0224234360809032
0.21007461773481587 -1.130037274230771
0.2127352948103318 -1.2347968850676232
0.21617256142643712 -1.3357763219036278
0.22052924103132754 -1.4318793651362256
0.2260065361029496 -1.5217833725447854
0.23285037681519175 -1.6038778872917292
0.2413213338882909 -1.6762339760532567
0.2516431264574618 -1.7366447595736245
0.26396892239507463 -1.7827581852191228
0.2783314473146934 -1.8123145620438141
0.29447193368119523 -1.823408647394927
0.31061242004769607 -1.8123145620437657
0.32497494496731244 -1.7827581852190242
0.3373007409049216 -1.7366447595734824
0.3476225334740882 -1.676233976053081
0.356093490547183 -1.6038778872915296
0.3629373312594204 -1.521783372544568
0.3684146263310384 -1.4318793651359951
0.37277130593592495 -1.335776321903391
0.376208572552026 -1.2347968850673874
0.37886924962753804 -1.1300372742305433
0.3808530317707633 -1.0224234360806892
0.38225019854123826 -0.9127201198735894
0.3831911217528074 -0.801554236422043
0.3838221533888534 -0.6894116159815776
0.38427003624372014 -0.5766193021492053
0.38459184473892744 -0.4633571332138445
0.38479640099367396 -0.34972915407349997
0.38488623029128793 -0.23578131391617593
0.3849180119819786 -0.12153426438651001
0.3853288049438573 -0.006884069592502961
0.23208429751532492 -0.007213701877735999
0.23237827345263778 -0.12157236505939323
0.2323848301113856 -0.23578255296710576
0.23241578544016717 -0.34973313570174974
0.2325311220226733 -0.46337596872192893
0.23273692736185145 -0.5766531513661415
0.2330353076081128 -0.6894599784627633
0.2334563594532001 -0.8016253901772267
0.23406571167736825 -0.9128375593039382
0.2349590244564478 -1.0226213217952493
0.23623883392535255 -1.1303449482819492
0.23798121591225918 -1.2352373539205626
0.2402475144333637 -1.336373699094476
0.24312713416752235 -1.4326704770481251
0.24674907254373954 -1.5228168836654603
0.2512833968860736 -1.6052113305799893
0.2569284925180895 -1.6779262248731355
0.26389673712730183 -1.7387460572054774
0.27237492762552457 -1.7853073481510386
0.28254551720217813 -1.8153283513872482
0.2944719336811901 -1.8268108770851255
0.3063983501602012 -1.8153283513871994
0.3165689397368532 -1.7853073481509394
0.32504713023507315 -1.7387460572053348
0.33201537484428245 -1.6779262248729592
0.3376604704762955 -1.6052113305797888
0.3421947948186264 -1.522816883665242
0.345816733194841 -1.4326704770478937
0.34869635292899726 -1.3363736990942383
0.35096265145009914 -1.2352373539203263
0.3527050334370032 -1.1303449482817214
0.35398484290590565 -1.022621321795035
0.3548781556849837 -0.9128375593037402
0.3554875079091509 -0.8016253901770483
0.3559085597542376 -0.6894599784626064
0.35620694000049874 -0.576653151366009
0.35641274533967665 -0.4633759687218196
0.35652808192218277 -0.34973313570166475
0.3565590372509643 -0.2357825529670445
0.35656559390971204 -0.121572365059356
0.35685956984702427 -0.007213701877724299
0.2604982979973211 -0.00746835287975308
0.2607118101429812 -0.12161284264653807
0.2606938655974001 -0.2357810692212716
0.2606698410743648 -0.34972963346341646
0.2606993386820053 -0.463383033036266
0.26078858557591844 -0.5766715383068595
0.26093401437191444 -0.6894888664793938
0.26114472735095884 -0.8016673484731215
0.26144744625973354 -0.912899705412658
0.261886993593684 -1.0227182756159663
0.2625048899860304 -1.1304971800722838
0.2633563787581572 -1.2354634723805733
0.2644701827850621 -1.3366880139700557
0.26589395045712794 -1.433095767974634
0.26769374327943096 -1.5233829442852107
0.2699579172467824 -1.6059566291763734
0.27281300657757546 -1.6788966747430065
0.2764389239662991 -1.7399952441429904
0.28107278142091163 -1.7868874209644103
0.2869560675377955 -1.8173064068911204
0.2944719336811847 -1.8292158626105093
0.30198779982457336 -1.8173064068910714
0.30787108594145657 -1.7868874209643109
0.3125049433960672 -1.7399952441428472
0.3161308607847891 -1.6788966747428296
0.3189859501155809 -1.6059566291761724
0.321250124082931 -1.5233829442849918
0.32304991690523294 -1.4330957679744025
0.32447368457729797 -1.3366880139698178
0.32558748860420184 -1.2354634723803364
0.3264389773763275 -1.1304971800720556
0.32705687376867293 -1.0227182756157516
0.3274964211026229 -0.91289970541246
0.3277991400113972 -0.8016673484729431
0.3280098529904414 -0.6894888664792369
0.3281552817864373 -0.5766715383067268
0.3282445286803504 -0.4633830330361566
0.32827402628799096 -0.3497296334633315
0.32825000176495556 -0.2357810692212103
0.32823205721937443 -0.12161284264650087
0.3284455693650342 -0.0074683528797409885
0.2888720540012092 -0.007667542447936829
0.28902919118095893 -0.12165419915895197
0.2889889899615288 -0.23577673611661368
0.28891363522786967 -0.34971920290310926
0.28886042706844917 -0.4633786664562624
0.2888339930875803 -0.5766742907992826
0.2888243645916567 -0.6894975756140344
0.288822273214093 -0.8016812686971995
0.2888222423494832 -0.91291993026575
0.28882266471929496 -1.0227482424866314
0.28882297557602127 -1.1305399363742623
0.2888231601276415 -1.2355235006309142
0.28882221983125594 -1.3367698095766207
0.2888185101991856 -1.4332066040726754
0.28881209135316926 -1.523531542867969
0.2888149788792486 -1.6061603767465022
0.2888849013306338 -1.6791873110137958
0.2891752115716665 -1.7404266805971995
0.2899673358094897 -1.7875309097627048
0.2916014070555663 -1.8182361301824692
0.2944719336811789 -1.830590600110959
0.29734246030679173 -1.8182361301824201
0.298976531552868 -1.7875309097626053
0.2997686557906907 -1.740426680597056
0.3000589660317233 -1.6791873110136186
0.30012888848310915 -1.6061603767463013
0.3001317760091887 -1.5235315428677503
0.3001253571631728 -1.4332066040724438
0.30012164753110315 -1.3367698095763827
0.3001207072347183 -1.2355235006306773
0.300120891786339 -1.1305399363740338
0.3001212026430657 -1.022748242486417
0.3001216250128777 -0.912919930265552
0.3001215941482681 -0.8016812686970212
0.3001195027707045 -0.6894975756138775
0.30010987427478103 -0.5766742907991499
0.30008344029391226 -0.4633786664561531
0.30003023213449187 -0.34971920290302433
0.29995487740083276 -0.2357767361165524
0.2999146761814026 -0.12165419915891477
0.30007181336115224 -0.0076675424479245085
0.3172179837600802 -0.007825008562587643
0.31733522083202675 -0.12169386394261936
0.31727449439334326 -0.23576979592731742
0.317151352866912 -0.34970224518176146
0.31701858929017285 -0.4633633364657198
0.3168786128249743 -0.5766615189363773
0.3167151328437804 -0.6894859004921865
0.3164996815891484 -0.8016668141888812
0.3161970772852105 -0.9128998631906571
0.31575835756219195 -1.0227184000411245
0.3151412032632047 -1.1304973052778229
0.31429001559878317 -1.2354632998710362
0.31317437553969446 -1.3366870788731178
0.3117433754919628 -1.4330936995428671
0.3099301870293337 -1.5233809376881082
0.30767151225915407 -1.6059668952634811
0.30494900254490553 -1.678961895499397
0.30185674462674966 -1.740205520339379
0.2986671570710241 -1.7873875457113468
0.2958566457162375 -1.8182239858575602
0.29447193368117347 -1.8310480539798264
0.2930872216461093 -1.8182239858575109
0.29027671029132246 -1.7873875457112474
0.2870871227355979 -1.7402055203392353
0.283994864817444 -1.6789618954992203
0.281272355103198 -1.6059668952632804
0.27901368033302026 -1.5233809376878893
0.2772004918703929 -1.4330936995426358
0.27576949182266364 -1.3366870788728802
0.2746538517635774 -1.2354632998707997
0.2738026640991578 -1.1304973052775948
0.27318550980017237 -1.0227184000409097
0.27274679007715497 -0.9128998631904593
0.2724441857732178 -0.8016668141887029
0.2722287345185863 -0.6894859004920297
0.27206525453739266 -0.5766615189362446
0.2719252780721943 -0.46336333646561045
0.27179251449545533 -0.34970224518167653
0.27166937296902416 -0.2357697959272561
0.2716086465303407 -0.12169386394258214
0.27172588360228717 -0.00782500856257514
0.34555111536600647 -0.007946713415986231
0.3456350181144527 -0.12173016108924278
0.34555517283061227 -0.23576023508186653
0.34538730616357405 -0.3496791839331633
0.34517830561204105 -0.46333762035688847
0.3449278844913488 -0.5766335724789952
0.3446127701568062 -0.6894541368964391
0.3441881210309264 -0.8016243689267885
0.3435788129623815 -0.9128378752568604
0.3426865175092618 -1.0226216318660921
0.3414073688311163 -1.1303451510934186
0.33966503906626544 -1.2352369876690592
0.33739745781288594 -1.336371771675123