# vtk DataFile Version 3.0
Some data
ASCII
DATASET UNSTRUCTURED_GRID
POINTS 861 float
0.0 0.0 0.0
0.4 0.0 0.0
0.8 0.0 0.0
1.2000000000000002 0.0 0.0
1.6 0.0 0.0
2.0 0.0 0.0
2.4000000000000004 0.0 0.0
2.8000000000000003 0.0 0.0
3.2 0.0 0.0
3.6 0.0 0.0
4.0 0.0 0.0
4.4 0.0 0.0
4.800000000000001 0.0 0.0
5.2 0.0 0.0
5.6000000000000005 0.0 0.0
6.0 0.0 0.0
6.4 0.0 0.0
6.800000000000001 0.0 0.0
7.2 0.0 0.0
7.6000000000000005 0.0 0.0
8.0 0.0 0.0
8.4 0.0 0.0
8.8 0.0 0.0
9.200000000000001 0.0 0.0
9.600000000000001 0.0 0.0
10.0 0.0 0.0
10.4 0.0 0.0
10.8 0.0 0.0
11.200000000000001 0.0 0.0
11.600000000000001 0.0 0.0
12.0 0.0 0.0
12.4 0.0 0.0
12.8 0.0 0.0
13.200000000000001 0.0 0.0
13.600000000000001 0.0 0.0
14.0 0.0 0.0
14.4 0.0 0.0
14.8 0.0 0.0
15.200000000000001 0.0 0.0
15.600000000000001 0.0 0.0
16.0 0.0 0.0
0.0 0.1 0.0
0.4 0.1 0.0
0.8 0.1 0.0
1.2000000000000002 0.1 0.0
1.6 0.1 0.0
2.0 0.1 0.0
2.4000000000000004 0.1 0.0
2.8000000000000003 0.1 0.0
3.2 0.1 0.0
3.6 0.1 0.0
4.0 0.1 0.0
4.4 0.1 0.0
4.800000000000001 0.1 0.0
5.2 0.1 0.0
5.6000000000000005 0.1 0.0
6.0 0.1 0.0
6.4 0.1 0.0
6.800000000000001 0.1 0.0
7.2 0.1 0.0
7.6000000000000005 0.1 0.0
8.0 0.1 0.0
8.4 0.1 0.0
8.8 0.1 0.0
9.200000000000001 0.1 0.0
9.600000000000001 0.1 0.0
10.0 0.1 0.0
10.4 0.1 0.0
10.8 0.1 0.0
11.200000000000001 0.1 0.0
11.600000000000001 0.1 0.0
12.0 0.1 0.0
12.4 0.1 0.0
12.8 0.1 0.0
13.200000000000001 0.1 0.0
13.600000000000001 0.1 0.0
14.0 0.1 0.0
14.4 0.1 0.0
14.8 0.1 0.0
15.200000000000001 0.1 0.0
15.600000000000001 0.1 0.0
16.0 0.1 0.0
0.0 0.2 0.0
0.4 0.2 0.0
0.8 0.2 0.0
1.2000000000000002 0.2 0.0
1.6 0.2 0.0
2.0 0.2 0.0
2.4000000000000004 0.2 0.0
2.8000000000000003 0.2 0.0
3.2 0.2 0.0
3.6 0.2 0.0
4.0 0.2 0.0
4.4 0.2 0.0
4.800000000000001 0.2 0.0
5.2 0.2 0.0
5.6000000000000005 0.2 0.0
6.0 0.2 0.0
6.4 0.2 0.0
6.800000000000001 0.2 0.0
7.2 0.2 0.0
7.6000000000000005 0.2 0.0
8.0 0.2 0.0
8.4 0.2 0.0
8.8 0.2 0.0
9.200000000000001 0.2 0.0
9.600000000000001 0.2 0.0
10.0 0.2 0.0
10.4 0.2 0.0
10.8 0.2 0.0
11.200000000000001 0.2 0.0
11.600000000000001 0.2 0.0
12.0 0.2 0.0
12.4 0.2 0.0
12.8 0.2 0.0
13.200000000000001 0.2 0.0
13.600000000000001 0.2 0.0
14.0 0.2 0.0
14.4 0.2 0.0
14.8 0.2 0.0
15.200000000000001 0.2 0.0
15.600000000000001 0.2 0.0
16.0 0.2 0.0
0.0 0.30000000000000004 0.0
0.4 0.30000000000000004 0.0
0.8 0.30000000000000004 0.0
1.2000000000000002 0.30000000000000004 0.0
1.6 0.30000000000000004 0.0
2.0 0.30000000000000004 0.0
2.4000000000000004 0.30000000000000004 0.0
2.8000000000000003 0.30000000000000004 0.0
3.2 0.30000000000000004 0.0
3.6 0.30000000000000004 0.0
4.0 0.30000000000000004 0.0
4.4 0.30000000000000004 0.0
4.800000000000001 0.30000000000000004 0.0
5.2 0.30000000000000004 0.0
5.6000000000000005 0.30000000000000004 0.0
6.0 0.30000000000000004 0.0
6.4 0.30000000000000004 0.0
6.800000000000001 0.30000000000000004 0.0
7.2 0.30000000000000004 0.0
7.6000000000000005 0.30000000000000004 0.0
8.0 0.30000000000000004 0.0
8.4 0.30000000000000004 0.0
8.8 0.30000000000000004 0.0
9.200000000000001 0.30000000000000004 0.0
9.600000000000001 0.30000000000000004 0.0
10.0 0.30000000000000004 0.0
10.4 0.30000000000000004 0.0
10.8 0.30000000000000004 0.0
11.200000000000001 0.30000000000000004 0.0
11.600000000000001 0.30000000000000004 0.0
12.0 0.30000000000000004 0.0
12.4 0.30000000000000004 0.0
12.8 0.30000000000000004 0.0
13.200000000000001 0.30000000000000004 0.0
13.600000000000001 0.30000000000000004 0.0
14.0 0.30000000000000004 0.0
14.4 0.30000000000000004 0.0
14.8 0.30000000000000004 0.0
15.200000000000001 0.30000000000000004 0.0
15.600000000000001 0.30000000000000004 0.0
16.0 0.30000000000000004 0.0
0.0 0.4 0.0
0.4 0.4 0.0
0.8 0.4 0.0
1.2000000000000002 0.4 0.0
1.6 0.4 0.0
2.0 0.4 0.0
2.4000000000000004 0.4 0.0
2.8000000000000003 0.4 0.0
3.2 0.4 0.0
3.6 0.4 0.0
4.0 0.4 0.0
4.4 0.4 0.0
4.800000000000001 0.4 0.0
5.2 0.4 0.0
5.6000000000000005 0.4 0.0
6.0 0.4 0.0
6.4 0.4 0.0
6.800000000000001 0.4 0.0
7.2 0.4 0.0
7.6000000000000005 0.4 0.0
8.0 0.4 0.0
8.4 0.4 0.0
8.8 0.4 0.0
9.200000000000001 0.4 0.0
9.600000000000001 0.4 0.0
10.0 0.4 0.0
10.4 0.4 0.0
10.8 0.4 0.0
11.200000000000001 0.4 0.0
11.600000000000001 0.4 0.0
12.0 0.4 0.0
12.4 0.4 0.0
12.8 0.4 0.0
13.200000000000001 0.4 0.0
13.600000000000001 0.4 0.0
14.0 0.4 0.0
14.4 0.4 0.0
14.8 0.4 0.0
15.200000000000001 0.4 0.0
15.600000000000001 0.4 0.0
16.0 0.4 0.0
0.0 0.5 0.0
0.4 0.5 0.0
0.8 0.5 0.0
1.2000000000000002 0.5 0.0
1.6 0.5 0.0
2.0 0.5 0.0
2.4000000000000004 0.5 0.0
2.8000000000000003 0.5 0.0
3.2 0.5 0.0
3.6 0.5 0.0
4.0 0.5 0.0
4.4 0.5 0.0
4.800000000000001 0.5 0.0
5.2 0.5 0.0
5.6000000000000005 0.5 0.0
6.0 0.5 0.0
6.4 0.5 0.0
6.800000000000001 0.5 0.0
7.2 0.5 0.0
7.6000000000000005 0.5 0.0
8.0 0.5 0.0
8.4 0.5 0.0
8.8 0.5 0.0
9.200000000000001 0.5 0.0
9.600000000000001 0.5 0.0
10.0 0.5 0.0
10.4 0.5 0.0
10.8 0.5 0.0
11.200000000000001 0.5 0.0
11.600000000000001 0.5 0.0
12.0 0.5 0.0
12.4 0.5 0.0
12.8 0.5 0.0
13.200000000000001 0.5 0.0
13.600000000000001 0.5 0.0
14.0 0.5 0.0
14.4 0.5 0.0
14.8 0.5 0.0
15.200000000000001 0.5 0.0
15.600000000000001 0.5 0.0
16.0 0.5 0.0
0.0 0.6000000000000001 0.0
0.4 0.6000000000000001 0.0
0.8 0.6000000000000001 0.0
1.2000000000000002 0.6000000000000001 0.0
1.6 0.6000000000000001 0.0
2.0 0.6000000000000001 0.0
2.4000000000000004 0.6000000000000001 0.0
2.8000000000000003 0.6000000000000001 0.0
3.2 0.6000000000000001 0.0
3.6 0.6000000000000001 0.0
4.0 0.6000000000000001 0.0
4.4 0.6000000000000001 0.0
4.800000000000001 0.6000000000000001 0.0
5.2 0.6000000000000001 0.0
5.6000000000000005 0.6000000000000001 0.0
6.0 0.6000000000000001 0.0
6.4 0.6000000000000001 0.0
6.800000000000001 0.6000000000000001 0.0
7.2 0.6000000000000001 0.0
7.6000000000000005 0.6000000000000001 0.0
8.0 0.6000000000000001 0.0
8.4 0.6000000000000001 0.0
8.8 0.6000000000000001 0.0
9.200000000000001 0.6000000000000001 0.0
9.600000000000001 0.6000000000000001 0.0
10.0 0.6000000000000001 0.0
10.4 0.6000000000000001 0.0
10.8 0.6000000000000001 0.0
11.200000000000001 0.6000000000000001 0.0
11.600000000000001 0.6000000000000001 0.0
12.0 0.6000000000000001 0.0
12.4 0.6000000000000001 0.0
12.8 0.6000000000000001 0.0
13.200000000000001 0.6000000000000001 0.0
13.600000000000001 0.6000000000000001 0.0
14.0 0.6000000000000001 0.0
14.4 0.6000000000000001 0.0
14.8 0.6000000000000001 0.0
15.200000000000001 0.6000000000000001 0.0
15.600000000000001 0.6000000000000001 0.0
16.0 0.6000000000000001 0.0
0.0 0.7000000000000001 0.0
0.4 0.7000000000000001 0.0
0.8 0.7000000000000001 0.0
1.2000000000000002 0.7000000000000001 0.0
1.6 0.7000000000000001 0.0
2.0 0.7000000000000001 0.0
2.4000000000000004 0.7000000000000001 0.0
2.8000000000000003 0.7000000000000001 0.0
3.2 0.7000000000000001 0.0
3.6 0.7000000000000001 0.0
4.0 0.7000000000000001 0.0
4.4 0.7000000000000001 0.0
4.800000000000001 0.7000000000000001 0.0
5.2 0.7000000000000001 0.0
5.6000000000000005 0.7000000000000001 0.0
6.0 0.7000000000000001 0.0
6.4 0.7000000000000001 0.0
6.800000000000001 0.7000000000000001 0.0
7.2 0.7000000000000001 0.0
7.6000000000000005 0.7000000000000001 0.0
8.0 0.7000000000000001 0.0
8.4 0.7000000000000001 0.0
8.8 0.7000000000000001 0.0
9.200000000000001 0.7000000000000001 0.0
9.600000000000001 0.7000000000000001 0.0
10.0 0.7000000000000001 0.0
10.4 0.7000000000000001 0.0
10.8 0.7000000000000001 0.0
11.200000000000001 0.7000000000000001 0.0
11.600000000000001 0.7000000000000001 0.0
12.0 0.7000000000000001 0.0
12.4 0.7000000000000001 0.0
12.8 0.7000000000000001 0.0
13.200000000000001 0.7000000000000001 0.0
13.600000000000001 0.7000000000000001 0.0
14.0 0.7000000000000001 0.0
14.4 0.7000000000000001 0.0
14.8 0.7000000000000001 0.0
15.200000000000001 0.7000000000000001 0.0
15.600000000000001 0.7000000000000001 0.0
16.0 0.7000000000000001 0.0
0.0 0.8 0.0
0.4 0.8 0.0
0.8 0.8 0.0
1.2000000000000002 0.8 0.0
1.6 0.8 0.0
2.0 0.8 0.0
2.4000000000000004 0.8 0.0
2.8000000000000003 0.8 0.0
3.2 0.8 0.0
3.6 0.8 0.0
4.0 0.8 0.0
4.4 0.8 0.0
4.800000000000001 0.8 0.0
5.2 0.8 0.0
5.6000000000000005 0.8 0.0
6.0 0.8 0.0
6.4 0.8 0.0
6.800000000000001 0.8 0.0
7.2 0.8 0.0
7.6000000000000005 0.8 0.0
8.0 0.8 0.0
8.4 0.8 0.0
8.8 0.8 0.0
9.200000000000001 0.8 0.0
9.600000000000001 0.8 0.0
10.0 0.8 0.0
10.4 0.8 0.0
10.8 0.8 0.0
11.200000000000001 0.8 0.0
11.600000000000001 0.8 0.0
12.0 0.8 0.0
12.4 0.8 0.0
12.8 0.8 0.0
13.200000000000001 0.8 0.0
13.600000000000001 0.8 0.0
14.0 0.8 0.0
14.4 0.8 0.0
14.8 0.8 0.0
15.200000000000001 0.8 0.0
15.600000000000001 0.8 0.0
16.0 0.8 0.0
0.0 0.9 0.0
0.4 0.9 0.0
0.8 0.9 0.0
1.2000000000000002 0.9 0.0
1.6 0.9 0.0
2.0 0.9 0.0
2.4000000000000004 0.9 0.0
2.8000000000000003 0.9 0.0
3.2 0.9 0.0
3.6 0.9 0.0
4.0 0.9 0.0
4.4 0.9 0.0
4.800000000000001 0.9 0.0
5.2 0.9 0.0
5.6000000000000005 0.9 0.0
6.0 0.9 0.0
6.4 0.9 0.0
6.800000000000001 0.9 0.0
7.2 0.9 0.0
7.6000000000000005 0.9 0.0
8.0 0.9 0.0
8.4 0.9 0.0
8.8 0.9 0.0
9.200000000000001 0.9 0.0
9.600000000000001 0.9 0.0
10.0 0.9 0.0
10.4 0.9 0.0
10.8 0.9 0.0
11.200000000000001 0.9 0.0
11.600000000000001 0.9 0.0
12.0 0.9 0.0
12.4 0.9 0.0
12.8 0.9 0.0
13.200000000000001 0.9 0.0
13.600000000000001 0.9 0.0
14.0 0.9 0.0
14.4 0.9 0.0
14.8 0.9 0.0
15.200000000000001 0.9 0.0
15.600000000000001 0.9 0.0
16.0 0.9 0.0
0.0 1.0 0.0
0.4 1.0 0.0
0.8 1.0 0.0
1.2000000000000002 1.0 0.0
1.6 1.0 0.0
2.0 1.0 0.0
2.4000000000000004 1.0 0.0
2.8000000000000003 1.0 0.0
3.2 1.0 0.0
3.6 1.0 0.0
4.0 1.0 0.0
4.4 1.0 0.0
4.800000000000001 1.0 0.0
5.2 1.0 0.0
5.6000000000000005 1.0 0.0
6.0 1.0 0.0
6.4 1.0 0.0
6.800000000000001 1.0 0.0
7.2 1.0 0.0
7.6000000000000005 1.0 0.0
8.0 1.0 0.0
8.4 1.0 0.0
8.8 1.0 0.0
9.200000000000001 1.0 0.0
9.600000000000001 1.0 0.0
10.0 1.0 0.0
10.4 1.0 0.0
10.8 1.0 0.0
11.200000000000001 1.0 0.0
11.600000000000001 1.0 0.0
12.0 1.0 0.0
12.4 1.0 0.0
12.8 1.0 0.0
13.200000000000001 1.0 0.0
13.600000000000001 1.0 0.0
14.0 1.0 0.0
14.4 1.0 0.0
14.8 1.0 0.0
15.200000000000001 1.0 0.0
15.600000000000001 1.0 0.0
16.0 1.0 0.0
0.0 1.1 0.0
0.4 1.1 0.0
0.8 1.1 0.0
1.2000000000000002 1.1 0.0
1.6 1.1 0.0
[...]
POINT_DATA 861
SCALARS Disp float 2
LOOKUP_TABLE default
0.0 0.0
0.004440953443123573 -0.14110707956434687
0.005477204437989796 -0.274895549250219
0.006200099945467557 -0.40796858209162223
0.007071308758717831 -0.5407471330550463
0.00830021976719257 -0.6729906686438714
0.010222704964963051 -0.8043957581539948
0.01318799802132119 -0.9346080501933829
0.017589288494665914 -1.063190676929961
0.023846952416321607 -1.1895822134961596
0.03239559501087752 -1.3130304612697434
0.04370461446889929 -1.432537764976241
0.05829945212113553 -1.5468471127715118
0.07675390359916318 -1.654480080897184
0.09968598045223763 -1.7537739188952817
0.127683580082869 -1.8429103110211627
0.16116956412182587 -1.9199496940587435
0.20023225512070988 -1.98289102548264
0.24447152688589405 -2.029805644940761
0.2929233665111759 -2.0590626076315792
0.3439989869385308 -2.0695473627958836
0.3950746073658836 -2.0590626076315233
0.4435264469911573 -2.0298056449406463
0.4877657187563274 -1.982891025482474
0.5268284097551935 -1.9199496940585354
0.5603143937941318 -1.842910311020926
0.5883119934247437 -1.7537739188950212
0.611244070277799 -1.6544800808969078
0.6296985217558069 -1.546847112771228
0.644293359408024 -1.4325377649759585
0.6556023788660283 -1.3130304612694697
0.6641510214605699 -1.1895822134959007
0.6704086853822143 -1.0631906769297206
0.67480997585555 -0.934608050193165
0.677775268911902 -0.8043957581538015
0.6796977541096684 -0.6729906686437064
0.6809266651181414 -0.5407471330549101
0.6817978739313912 -0.40796858209151654
0.6825207694388687 -0.2748955492501432
0.683557020433734 -0.14110707956430288
0.6879979738768546 0.0
0.0352106706195226 -0.0019331601703177763
0.03821058262798559 -0.14124995109945684
0.038776904954067895 -0.27495819359018575
0.039427209065750334 -0.40804830495565897
0.04020535112935712 -0.5408526236352716
0.04127027111124684 -0.6731890181048539
0.042942977172476464 -0.8047699781051284
0.0455570143619045 -0.9352482519294596
0.04948071380014236 -1.0641962749536487
0.055094013473481356 -1.191052998978519
0.06278133970839349 -1.315069341975904
0.07294856646700157 -1.4352588028335573
0.08605391649360505 -1.5503803205800615
0.10262530057116392 -1.6589697893412094
0.12323213421320987 -1.7593708185543395
0.14842554817126755 -1.8497454450465716
0.17860880601997936 -1.9280957134144556
0.2138827218242605 -1.9923218193656744
0.25390980254746426 -2.040365943897314
0.29780896199623363 -2.0704537214375955
0.343998986938524 -2.0812690906009834
0.39018901188081206 -2.0704537214375387
0.4340881713295739 -2.040365943897197
0.47411525205276545 -1.9923218193655046
0.5093891678570311 -1.9280957134142436
0.5395724257057265 -1.8497454450463304
0.5647658396637666 -1.7593708185540748
0.5853726733057952 -1.6589697893409285
0.6019440573833365 -1.5503803205797733
0.6150494074099228 -1.4352588028332707
0.6252166341685153 -1.3150693419756267
0.6329039604034142 -1.1910529989782572
0.6385172600767429 -1.064196274953406
0.6424409595149727 -0.93524825192924
0.645054996704395 -0.804769978104934
0.6467277027656212 -0.6731890181046882
0.6477926227475096 -0.5408526236351352
0.648570764811116 -0.40804830495555333
0.6492210689227983 -0.2749581935901099
0.6497873912488806 -0.14124995109941266
0.6527873032573391 -0.001933160170315508
0.06961683352884515 -0.003443154735380383
0.07176974079882124 -0.14131581071725996
0.07209928300412471 -0.2749964208687632
0.07263137408034971 -0.40812046222145354
0.07332292081043945 -0.5409413157433854
0.07424138180462293 -0.6733471570980121
0.07566500472938475 -0.805079293476228
0.07792722400571644 -0.9357940689031046
0.08136534688325281 -1.0650707286622478
0.0863224674479427 -1.1923458484840044
0.09313483552237349 -1.3168706605481935
0.10215138101906389 -1.4376665847994656
0.11376586074246724 -1.553509127248123
0.12844360071763833 -1.6629523896077454
0.14671002179679096 -1.764346387576383
0.1690728558665253 -1.8558370085668152
0.19591913326366706 -1.9353754298907748
0.22737807722160117 -2.000774212340994
0.26318299495653474 -2.049857035089188
0.302528690178911 -2.0806964965852983
0.34399898693851744 -2.0918182095245608
0.38546928369812167 -2.08069649658524
0.424814978920491 -2.0498570350890684
0.46061989665541403 -2.000774212340821
0.49207884061333473 -1.935375429890559
0.5189251180104618 -1.85583700856657
0.5412879520801805 -1.764346387576114
0.5595543731593177 -1.6629523896074605
0.5742321131344732 -1.5535091272478307
0.5858465928578613 -1.4376665847991752
0.5948631383545379 -1.316870660547913
0.601675506428957 -1.1923458484837401
0.6066326269936375 -1.0650707286620031
0.6100707498711666 -0.9357940689028834
0.6123329691474932 -0.8050792934760326
0.6137565920722523 -0.6733471570978462
0.6146750530664349 -0.5409413157432489
0.6153665997965242 -0.4081204622213479
0.6158986908727492 -0.2749964208686874
0.6162282330780527 -0.1413158107172155
0.6183811403480246 -0.0034431547353758014
0.10360388494385869 -0.0046470882007449
0.1052003741957229 -0.14136006829497438
0.10540248266590807 -0.2750179930167194
0.10581878410559985 -0.4081802501853699
0.10641828346796403 -0.5410183614799083
0.10720950146419615 -0.6734708709000473
0.10839677503328565 -0.8053249651803451
0.11030679869004555 -0.9362466839464816
0.11325567151757049 -1.0658132379888827
0.11754893477479925 -1.193459264694721
0.12347824238687538 -1.3184328990878094
0.13133788222325204 -1.4397614575421265
0.14146114670079157 -1.5562349459185316
0.1542491623374036 -1.6664269386215032
0.1701652964056103 -1.7686975240480385
0.18968020162276883 -1.8611795936799678
0.21316618487045122 -1.9417825094667303
0.24078228611618505 -2.008243725573102
0.2723383497158739 -2.0582756582500226
0.30715290354537533 -2.089809493491715
0.3439989869385112 -2.1012371033770583
0.38084507033164483 -2.089809493491656
0.4156596241611404 -2.058275658249901
0.44721568776081955 -2.008243725572926
0.4748317890065417 -1.9417825094665115
0.4983177722542112 -1.861179593679719
0.5178326774713562 -1.768697524047766
0.5337488115395491 -1.666426938621215
0.5465368271761475 -1.556234945918236
0.5566600916536739 -1.439761457541833
0.5645197314900386 -1.3184328990875258
0.5704490391021043 -1.1934592646944546
0.5747423023593248 -1.065813237988636
0.5776911751868433 -0.9362466839462592
0.5796011988435991 -0.805324965180149
0.5807884724126863 -0.6734708708998811
0.5815796904089178 -0.5410183614797717
0.5821791897712817 -0.40818025018526416
0.5825954912109735 -0.27501799301664376
0.5827975996811587 -0.14136006829492964
0.584394088933019 -0.004647088200738253
0.13734797578813876 -0.005611980105987866
0.13853915501297956 -0.1413979814653365
0.13867087713304457 -0.2750301259354809
0.1389875276427903 -0.4082265685991656
0.13949037719384447 -0.5410850805842081
0.14016513369615488 -0.6735694290457727
0.14114364881835367 -0.8055122487948064
0.1427042534012081 -0.9366075579128724
0.14516444612480828 -1.0664247766131918
0.1487907468474506 -1.194393078437938
0.15383292951762648 -1.3197563273522728
0.16053507849064702 -1.4415442149118785
0.16916939365987813 -1.5585598592522023
0.18007194798412482 -1.669395829775654
0.1936462726781572 -1.7724238235305418
0.2103080840394821 -1.865770358676114
0.23041558850393373 -1.9473121341015975
0.2541607641442176 -2.0147236517276843
0.2814397836554073 -2.065619540688341
0.31172668761599764 -2.0978053320324253
0.34399898693850506 -2.1095499148970047
0.3762712862610106 -2.097805332032365
0.4065581902215955 -2.0656195406882176
0.43383720973277645 -2.0147236517275062
0.4575823853730505 -1.9473121341013762
0.4776898898374908 -1.8657703586758625
0.49435170119880395 -1.7724238235302667
0.5079260258928247 -1.6693958297753626
0.5188285802170597 -1.5585598592519034
0.5274628953862797 -1.4415442149115822
0.53416504435929 -1.3197563273519868
0.539207227029457 -1.1943930784376695
0.542833527752092 -1.0664247766129438
0.5452937204756868 -0.9366075579126489
0.5468543250585377 -0.8055122487946097
0.547832840180735 -0.6735694290456065
0.5485075966830448 -0.5410850805840715
0.5490104462340988 -0.40822656859905987
0.5493270967438445 -0.27503012593540527
0.5494588188639095 -0.14139798146529153
0.5506499980887472 -0.00561198010597943
0.17093057220566446 -0.006380633582732634
0.17181261642475018 -0.1414340077983796
0.17190228291391838 -0.2750377600155278
0.1721352822597438 -0.4082603316030897
0.17253949758849005 -0.5411411480657017
0.17310281894653806 -0.6736489060294428
0.17389640800393838 -0.8056515864090706
0.1751352678477034 -0.9368793244182377
0.17710515661679402 -1.0669074892683466
0.18006590553811452 -1.1951489046180235
0.18422157960107682 -1.3208422120820273
0.1897685348641293 -1.4430172672666002
0.19692176775241163 -1.560487202731093
0.20595161044633484 -1.6718626115793411
0.21719206037438413 -1.7755289345479652
0.2310120382658679 -1.8696102468408842
0.24773972594928045 -1.951960860507504
0.26758652469133026 -2.0202070604785796
0.29055171864394846 -2.071883955579815
0.31628942391912385 -2.1046883883482588
0.34399898693849895 -2.116769977490602
0.37170854995787217 -2.1046883883481975
0.3974462552330427 -2.07188395557969
0.4204114491856536 -2.0202070604783993
0.4402582479276951 -1.95196086050728
0.45698593561109785 -1.86961024684063
0.4708059135025717 -1.775528934547688
0.4820463634306114 -1.6718626115790474
0.491076206124525 -1.5604872027307917
0.498229439012798 -1.4430172672663015
0.503776394275842 -1.3208422120817394
0.507932068338797 -1.1951489046177532
0.5108928172601113 -1.0669074892680972
0.5128627060291976 -0.9368793244180134
0.5141015658729599 -0.8056515864088735
0.5148951549303592 -0.6736489060292763
0.5154584762884067 -0.5411411480655649
0.5158626916171528 -0.4082603316029839
0.5160956909629781 -0.27503776001545216
0.5161853574521463 -0.1414340077983345
0.5170674016712297 -0.006380633582722695
0.2043959084413804 -0.0069862380966727285
0.20503956782708505 -0.14146915396091453
0.2051003472291013 -0.2750434501826726
0.20526133788962092 -0.40828303782897246
0.20556809684509664 -0.5411856312585329
0.20601890617244176 -0.6737131670654468
0.20664431559250065 -0.8057542582861992
0.20759383258843248 -0.9370734285084418
0.20909761162246918 -1.0672646220834245
0.21139376459239073 -1.1957298934973797
0.21466845790915384 -1.3216937761914915
0.2190667772801586 -1.4441842560892888
0.22474985083531207 -1.5620219415060983
0.2319235285138514 -1.6738334217320099
0.24085390933203837 -1.7780180408374995
0.25184626793522735 -1.8727037472378165
0.26520115029634744 -1.9557293252829204
0.28113998640803584 -2.0246878092739347
0.29974794665468535 -2.077059963688333
0.3208824395313187 -2.1104541621519233
0.34399898693849257 -2.1229012547039647
0.3671155343456651 -2.110454162151861
0.3882500272222942 -2.077059963688207
0.4068579874689377 -2.024687809273753
0.42279682358061904 -1.9557293252826944
0.43615170594173114 -1.8727037472375598
0.44714406454491207 -1.77801804083722
0.45607444536309144 -1.6738334217317141
0.4632481230416232 -1.5620219415057954
0.4689311965967694 -1.4441842560889881
0.47332951596776723 -1.3216937761912018
0.4766042092845245 -1.195729893497108
0.47890036225444127 -1.067264622083174
0.4804041412884747 -0.9370734285082167
0.48135365828440463 -0.8057542582860019
0.48197906770446275 -0.6737131670652802
0.4824298770318076 -0.541185631258396
0.4827366359872831 -0.4082830378288667
0.48289762664780267 -0.2750434501825969
0.4829584060498188 -0.14146915396086931
0.4836020654355217 -0.00698623809666157
0.23777428683064497 -0.0074549774314837305
0.23823364742265593 -0.14150451584338086
0.23827065015964977 -0.2750477925409253
0.23836680100627383 -0.40829613853240004
0.23857889682028094 -0.5412177757879121
0.23891289477759084 -0.6737636812445482
0.23938356000251748 -0.8058276552162097
0.2400710197513005 -0.9372042921920573
0.24114606795086088 -1.0675073391963605
0.2428002383743498 -1.1961414109649375
0.24520027400776254 -1.322316134211423
0.2484594220604957 -1.4450507346055714
0.2526875727596748 -1.5631709546451096
0.25802768932007675 -1.675316637813606
0.26467500844149405 -1.7799005169753663
0.2728699619198056 -1.875058019341294
0.2828699737292801 -1.9586212503014653
0.2948953096852744 -2.028163120290188
0.30910537103839303 -2.0811353600356184
0.3255535555367655 -2.1150882374097124
0.343998986938486 -2.1279377809110978
0.36244441834020563 -2.1150882374096494
0.3788926028385747 -2.081135360035491
0.3931026641916886 -2.0281631202900052
0.4051280001476773 -1.958621250301238
0.4151280119571455 -1.8750580193410358
0.423322965435451 -1.7799005169750854
0.42997028455686254 -1.6753166378133086
0.4353104011172593 -1.563170954644805
0.4395385518164329 -1.445050734605269
0.44279769986916107 -1.3223161342111323
0.4451977355025694 -1.1961414109646646
0.4468519059260549 -1.0675073391961096
0.447926954125613 -0.9372042921918319
0.4486144138743948 -0.8058276552160122
0.449085079099321 -0.6737636812443818
0.4494190770566307 -0.5412177757877752
0.4496311728706377 -0.40829613853229424
0.44972732371726165 -0.2750477925408496
0.4497643264542554 -0.1415045158433356
0.45022368704626514 -0.00745497743147163
0.2710825662270605 -0.007812680074473602
0.271407452147533 -0.14154081263700952
0.27141805161715415 -0.27505022912613475
0.27145428621006973 -0.40830073679167256
0.2715750020538156 -0.541237542008373
0.27178922104251263 -0.6737992329797307
0.2721038761657108 -0.8058793482059534
0.27255808560617695 -0.9372858788306384
0.2732446828761997 -1.067653418197818
0.2742981774129026 -1.1963969728923114
0.2758477159346622 -1.3227181709008575
0.2779832526697672 -1.4456255834787615
0.28077276763524034 -1.5639441695938439
0.28430477844564117 -1.6763240594714233
0.2887040859387152 -1.7811892266832687
0.2941389631155024 -1.8766850078232937
0.3008117821845652 -1.9606452559023893
0.30893799355676915 -2.030633908706756
0.31871370424246304 -2.084096719063758
0.33036030956641865 -2.1185662515228367
0.3439989869384792 -2.131863191025206
0.3576376643105391 -2.1185662515227732
0.3692842696344924 -2.0840967190636297
0.37905998032018295 -2.030633908706572
0.3871861916923827 -1.960645255902161
0.39385901076144136 -1.8766850078230344
0.39929388793822446 -1.7811892266829867
0.403693195431295 -1.6763240594711253
0.40722520624169267 -1.563944169593538
0.4100147212071622 -1.4456255834784584
0.41215025794226406 -1.3227181709005655
0.41369979646402083 -1.196396972892038
0.4147532910007217 -1.0676534181975665
0.41543988827074313 -0.937285878830413
0.41589409771120867 -0.8058793482057559
0.41620875283440645 -0.673799232979564
0.4164229718231034 -0.5412375420082361
0.41654368766684924 -0.40830073679156675
0.4165799222597647 -0.27505022912605903
0.41659052172938577 -0.14154081263696427
0.4169154076498575 -0.007812680074460794
0.30433184853276346 -0.008086631396429234
0.3045640904132119 -0.14157891494073796
0.3045477064024503 -0.27504968279365904
0.3045273166213344 -0.40829768881632117
0.3045598328773784 -0.5412451638570986
0.3046534800207664 -0.6738187046615761
0.3048072483997552 -0.8059104385225148
0.3050352398508898 -0.9373325391825897
0.3053738500741175 -1.0677269706050216
0.30588359807387727 -1.1965214674174505
0.30662985621668065 -1.3229204862149788
0.3076741326382864 -1.445926173111177
0.30904788273806993 -1.5643584810454847
0.31079630517247686 -1.6768742368071317
0.31298311467393747 -1.781904415807269
0.31569847715385685 -1.8776043944866374
0.31907815479912643 -1.9618165569002624
0.32331547075265676 -2.032111307779399
0.3286606730173604 -2.085937618785741
0.33539182351426017 -2.1208536865980174
0.3439989869384721 -2.1346458298320483
0.35260615036268367 -2.1208536865979535
0.35933730085958254 -2.085937618785612
0.36468250312428396 -2.032111307779214
0.3689198190778118 -1.9618165569000336
0.3722994967230795 -1.8776043944863772
0.37501485920299704 -1.7819044158069863
0.3772016687044562 -1.676874236806833
0.378950091138862 -1.5643584810451787
0.38032384123864404 -1.4459261731108732
0.38136811766024853 -1.3229204862146866
0.3821143758030507 -1.196521467417177
0.3826241238028098 -1.0677269706047703
0.3829627340260369 -0.9373325391823644
0.3831907254771713 -0.8059104385223173
0.38334449385616 -0.6738187046614095
0.383438140999548 -0.5412451638569618
0.383470657255592 -0.4082976888162153
0.3834502674744761 -0.27504968279358327
0.38343388346371443 -0.14157891494069272
0.3836661253441624 -0.00808663139641599
0.3375376908805088 -0.008298224301378776
0.33770473502282544 -0.14161836240845854
0.33766396514272673 -0.275045726913536
0.3375900118342243 -0.40828751815070546
0.3375373718355855 -0.5412409528634194
0.33751115029904616 -0.6738218293264103
0.3375016811693556 -0.8059199743751069
0.33749950706439863 -0.9373480458869744
0.33749934856778485 -1.0677503515945266
0.33749965278928684 -1.1965576466578576
0.33749978509332695 -1.3229742014422037
0.3375002862991249 -1.4460041384994835
0.3374985322470359 -1.564465977468038
0.33749294322238366 -1.677017424398108
0.33748400399122286 -1.7820943911587108
0.337488195495895 -1.877861521179716
0.3375777516290505 -1.9621755710491342
0.3379302166096048 -2.032629361369912
0.3388515131904145 -2.0866905921654366
0.34070442933203265 -2.121931274984633
0.34399898693846476 -2.1362436121674317
0.3472935445448971 -2.121931274984569
0.3491464606865151 -2.086690592165308
0.35006775726732386 -2.0326293613697266
0.35042022224787805 -1.9621755710489055
0.35050977838103403 -1.8778615211794558
0.3505139698857066 -1.7820943911584275
0.3505050306545463 -1.6770174243978093
0.350499441629895 -1.564465977467732
0.35049768757780675 -1.4460041384991797
0.35049818878360545 -1.3229742014419117
0.350498321087646 -1.1965576466575842
0.3504986253091483 -1.0677503515942754
0.35049846681253477 -0.9373480458867488
0.35049629270757793 -0.8059199743749094
0.35048682357788746 -0.6738218293262437
0.3504606020413482 -0.5412409528632827
0.3504079620427095 -0.4082875181505996
0.35033400873420706 -0.2750457269134602
0.3502932388541084 -0.1416183624084133
0.35046028299642484 -0.00829822430136526
0.37071164892784386 -0.008464355204450281
0.3708338944178052 -0.1416566193458471
0.3707708156901996 -0.2750386826078206
0.3706467629076071 -0.40827054818951464
0.37051199447147415 -0.5412253649058597
0.3703680879129297 -0.6738087160743111
0.3701964156007833 -0.805907629697092
0.36996359330239925 -0.9373320499781909
0.3696248374152594 -1.0677270911624932
0.3691156958933354 -1.1965215058362095
0.3683703738640435 -1.3229208620346071
0.3673266201571033 -1.4459258719838346
0.36594926008324014 -1.5643570175120398
0.3641897526895318 -1.6768712537183323
0.36198463701867517 -1.7819017472632854
0.3592785339254933 -1.8776190119873555
0.35607100554862603 -1.961899722530915
0.35248590883993264 -2.032367090013121
0.34882663008023196 -2.086515490211216
0.34559324561466975 -2.1219081324444047
0.3439989869384576 -2.1367715082098
0.3424047282622451 -2.1219081324443407
0.33917134379668284 -2.086515490211087
0.33551206503698344 -2.0323670900129356
0.33192696832829266 -1.9618997225306865
0.3287194399514284 -1.877619011987096
0.32601333685824907 -1.7819017472630025
0.3238082211873949 -1.676871253718034
0.3220487137936896 -1.564357017511734
0.32067135371982947 -1.4459258719835313
0.31962760001289203 -1.3229208620343154
0.3188822779836024 -1.1965215058359362
0.3183731364616797 -1.0677270911622423
0.31803438057454075 -0.9373320499779653
0.31780155827615714 -0.8059076296968944
0.31762988596401115 -0.6738087160741445
0.31748597940546697 -0.541225364905723
0.31735121096933416 -0.4082705481894088
0.31722715818674174 -0.2750386826077448
0.3171640794591362 -0.14165661934580187
0.31728632494909736 -0.008464355204436565
0.4038697086625257 -0.008592612991939318
0.4039564141096223 -0.14169192292062638
0.40387291665137437 -0.27502866049582486
0.4037019749625149 -0.40824716883138357
0.40348834565669356 -0.54119899268206
0.4032299001892908 -0.6737797026733766
0.4028986938673984 -0.805873783368897
0.4024406221892688 -0.9372849368945707
0.4017538667575028 -1.0676536458245196
0.4007014803262751 -1.196397246429819
0.39915276519506626 -1.322718627455001
0.3970171400853179 -1.4456249026062937
0.39422487236514253 -1.5639410282530228
0.39068337853731955 -1.6763171836578112
0.3862665702332766 -1.7811832619925443
0.3808361467686611 -1.8767142438834787