# vtk DataFile Version 3.0
Some data
ASCII
DATASET UNSTRUCTURED_GRID
POINTS 682 float
-50.0 -50.0 0.0
50.0 -50.0 0.0
50.0 50.0 0.0
-50.0 50.0 0.0
0.0 20.0 0.0
0.0 -20.0 0.0
-45.99999999999896 50.0 0.0
-41.9999999999979 50.0 0.0
-37.99999999999686 50.0 0.0
-33.99999999999581 50.0 0.0
-30.00000000000059 50.0 0.0
-26.00000000001376 50.0 0.0
-22.00000000002693 50.0 0.0
-18.0000000000401 50.0 0.0
-14.00000000005324 50.0 0.0
-10.0000000000664 50.0 0.0
-6.000000000079542 50.0 0.0
-2.000000000092656 50.0 0.0
1.999999999906121 50.0 0.0
5.999999999915295 50.0 0.0
9.999999999923459 50.0 0.0
13.99999999993163 50.0 0.0
17.99999999994331 50.0 0.0
21.99999999995853 50.0 0.0
25.99999999997376 50.0 0.0
29.99999999998899 50.0 0.0
33.99999999999586 50.0 0.0
37.9999999999969 50.0 0.0
41.99999999999793 50.0 0.0
45.99999999999896 50.0 0.0
50.0 45.99999999999896 0.0
50.0 41.9999999999979 0.0
50.0 37.99999999999686 0.0
50.0 33.99999999999581 0.0
50.0 30.00000000000059 0.0
50.0 26.00000000001376 0.0
50.0 22.00000000002693 0.0
50.0 18.0000000000401 0.0
50.0 14.00000000005324 0.0
50.0 10.0000000000664 0.0
50.0 6.000000000079542 0.0
50.0 2.000000000092656 0.0
50.0 -1.999999999906121 0.0
50.0 -5.999999999915295 0.0
50.0 -9.999999999923459 0.0
50.0 -13.99999999993163 0.0
50.0 -17.99999999994331 0.0
50.0 -21.99999999995853 0.0
50.0 -25.99999999997376 0.0
50.0 -29.99999999998899 0.0
50.0 -33.99999999999586 0.0
50.0 -37.9999999999969 0.0
50.0 -41.99999999999793 0.0
50.0 -45.99999999999896 0.0
45.99999999999896 -50.0 0.0
41.9999999999979 -50.0 0.0
37.99999999999686 -50.0 0.0
33.99999999999581 -50.0 0.0
30.00000000000059 -50.0 0.0
26.00000000001376 -50.0 0.0
22.00000000002693 -50.0 0.0
18.0000000000401 -50.0 0.0
14.00000000005324 -50.0 0.0
10.0000000000664 -50.0 0.0
6.000000000079542 -50.0 0.0
2.000000000092656 -50.0 0.0
-1.999999999906121 -50.0 0.0
-5.999999999915295 -50.0 0.0
-9.999999999923459 -50.0 0.0
-13.99999999993163 -50.0 0.0
-17.99999999994331 -50.0 0.0
-21.99999999995853 -50.0 0.0
-25.99999999997376 -50.0 0.0
-29.99999999998899 -50.0 0.0
-33.99999999999586 -50.0 0.0
-37.9999999999969 -50.0 0.0
-41.99999999999793 -50.0 0.0
-45.99999999999896 -50.0 0.0
-50.0 -45.99999999999896 0.0
-50.0 -41.9999999999979 0.0
-50.0 -37.99999999999686 0.0
-50.0 -33.99999999999581 0.0
-50.0 -30.00000000000059 0.0
-50.0 -26.00000000001376 0.0
-50.0 -22.00000000002693 0.0
-50.0 -18.0000000000401 0.0
-50.0 -14.00000000005324 0.0
-50.0 -10.0000000000664 0.0
-50.0 -6.000000000079542 0.0
-50.0 -2.000000000092656 0.0
-50.0 1.999999999906121 0.0
-50.0 5.999999999915295 0.0
-50.0 9.999999999923459 0.0
-50.0 13.99999999993163 0.0
-50.0 17.99999999994331 0.0
-50.0 21.99999999995853 0.0
-50.0 25.99999999997376 0.0
-50.0 29.99999999998899 0.0
-50.0 33.99999999999586 0.0
-50.0 37.9999999999969 0.0
-50.0 41.99999999999793 0.0
-50.0 45.99999999999896 0.0
-3.901806440288044 19.61570560807148 0.0
-7.653668647265455 18.47759065024079 0.0
-11.11140466035381 16.62939224607645 0.0
-14.14213562369474 14.14213562376717 0.0
-16.62939224601915 11.11140466043957 0.0
-18.47759065020115 7.653668647361153 0.0
-19.61570560805066 3.901806440392695 0.0
-20.0 7.776568614319829e-11 0.0
-19.6157056080774 -3.901806440258285 0.0
-18.47759065024524 -7.653668647254714 0.0
-16.62939224607186 -11.11140466036069 0.0
-14.14213562374694 -14.14213562371497 0.0
-11.11140466040043 -16.6293922460453 0.0
-7.65366864729932 -18.47759065022676 0.0
-3.90180644030583 -19.61570560806794 0.0
3.901806440288044 -19.61570560807148 0.0
7.653668647265455 -18.47759065024079 0.0
11.11140466035381 -16.62939224607645 0.0
14.14213562369474 -14.14213562376717 0.0
16.62939224601915 -11.11140466043957 0.0
18.47759065020115 -7.653668647361153 0.0
19.61570560805066 -3.901806440392695 0.0
20.0 -7.776568614319829e-11 0.0
19.6157056080774 3.901806440258285 0.0
18.47759065024524 7.653668647254714 0.0
16.62939224607186 11.11140466036069 0.0
14.14213562374694 14.14213562371497 0.0
11.11140466040043 16.6293922460453 0.0
7.65366864729932 18.47759065022676 0.0
3.90180644030583 19.61570560806794 0.0
21.0349885606842 -31.33291989490623 0.0
-21.92213524993364 32.47129740082516 0.0
-32.94195718131923 -21.14859496421213 0.0
32.48407655338185 21.92361233001349 0.0
-31.42766785017118 20.52973637256061 0.0
31.34269999426618 -20.843591133012 0.0
-20.66850481250735 -31.44486891594184 0.0
20.0281921064395 31.55415036089927 0.0
-18.67233805424752 42.50512532845049 0.0
18.19374025937458 -41.3023818091193 0.0
-42.17227278268256 -16.24076058910855 0.0
42.33829241096302 18.38562740073045 0.0
-40.86321105291192 18.22045265123251 0.0
-19.09931494913455 -40.64436380017196 0.0
-13.30478786335714 35.15565346988954 0.0
13.36569963208577 -33.83771726345368 0.0
-35.00763648785878 -13.66986120776997 0.0
35.15137232365157 13.29896341749408 0.0
-35.91973878086461 15.7257524773399 0.0
35.68134262944334 -13.50523986115313 0.0
14.28764867624587 35.97175823727987 0.0
-13.25608024279581 -36.09807581453354 0.0
-3.43573809733963 36.46130396748957 0.0
35.94387149962209 3.283015085636099 0.0
-35.62528452942622 -38.11661102564214 0.0
-38.61144023634591 34.81445789116533 0.0
34.36510053755555 38.72526495721833 0.0
38.75250588014823 -36.60167160487691 0.0
-40.57866978399257 46.81464340686621 0.0
45.20714492860375 -46.49369314478449 0.0
-34.56961509198562 -30.09715433458693 0.0
28.89989496625516 -35.30943539832101 0.0
35.24685681111853 -28.36472795070014 0.0
-30.34643278536468 34.20824456163002 0.0
34.03674534806063 30.31422029262094 0.0
-28.98189249145605 -10.98912622604279 0.0
25.41109985201274 -43.16931712699911 0.0
-26.597795920339 42.20147207521702 0.0
41.32669930959985 25.54113667098549 0.0
-22.48882370483756 -40.46175611878148 0.0
-18.0669898619053 25.26632201893649 0.0
17.72813917294362 -23.64712901441006 0.0
23.72778775552051 -17.64338066683542 0.0
-22.77443519795011 17.31221796259062 0.0
-25.07450847978108 -17.78314326524689 0.0
25.28898803843497 18.0556593023152 0.0
-17.71437862979588 -23.80397494215774 0.0
17.65719024624709 23.77463017495757 0.0
-27.9747090463393 -35.48993805662332 0.0
-35.40621929961179 27.30862593778066 0.0
26.16468943600576 -25.93382240574992 0.0
-26.50488120041251 25.78703828377619 0.0
-25.97573520979492 -26.47925882668211 0.0
25.80354875442789 26.4894138501519 0.0
-42.69565153438871 -35.45658735479477 0.0
27.18760823652676 35.38729571427982 0.0
41.88190235801823 34.45418445087055 0.0
-34.6954444584546 41.95187196559198 0.0
27.48629807742796 43.2394635414067 0.0
-43.21551196682957 27.63698140879208 0.0
43.40873777236504 -29.7149531370159 0.0
0.03902805686112204 25.50793362079343 0.0
26.49058815765176 0.4508521119359422 0.0
-27.16496611088848 -0.3998490888626399 0.0
-13.90465237569755 42.85919552680384 0.0
11.88268567144881 -43.5135427466366 0.0
-43.04762412693207 -13.58015228415966 0.0
42.8552257871967 13.9000399701175 0.0
43.84814664488243 -13.00404812910894 0.0
-43.89144862605731 12.87407331471758 0.0
-13.51069816788382 -43.5843256978244 0.0
13.05276926181895 43.88413546700496 0.0
43.47454277746057 -4.273927059036473 0.0
4.251839695595125 -43.00296293389271 0.0
-3.677127186826619 42.47072306863843 0.0
-42.57048792093359 -4.104201340196073 0.0
42.23487267792431 4.555512209557088 0.0
1.403550233453511 38.06263322058061 0.0
-28.6840696329963 -43.9094240394531 0.0
33.45783844263915 -43.62753908831294 0.0
46.33332628542988 -37.22257550074718 0.0
-46.58186236091294 35.08454843805947 0.0
-36.97468536493553 -45.693350813237 0.0
-41.50382447786544 42.97499305120035 0.0
-19.37061511912771 38.0783770016086 0.0
20.62296912632873 -38.16205147245761 0.0
-39.43229634248945 20.8134107432894 0.0
38.03064832695853 19.30833920884766 0.0
-20.71607715948846 -38.35175377766666 0.0
20.12189638536551 40.28938809992449 0.0
-41.03453967019605 -39.37510093269113 0.0
-46.42354308684152 43.6290998046874 0.0
-32.92916635725854 17.48596688573752 0.0
33.39922705361964 -17.56142203091263 0.0
-17.51123177642824 -33.46247860523317 0.0
16.29579410043273 32.3606547707406 0.0
-16.93738969355763 35.11727165207721 0.0
17.66368300133982 -33.38345136950765 0.0
35.09735848955847 16.90917182891173 0.0
-31.95048704757514 -16.86533364453098 0.0
41.12700327893752 -46.82287762733851 0.0
46.76974310941768 -41.50919855609006 0.0
19.2957726357979 -45.77701341558947 0.0
-45.76103885556889 -20.35867523002106 0.0
46.35337201291616 20.17070680000077 0.0
-46.70307824580135 19.91031570263512 0.0
-20.22689438772374 -46.69049767040066 0.0
19.89010420255736 46.694342063494 0.0
-41.32201878705205 -43.02276791727626 0.0
42.55326811187462 -43.1237758300644 0.0
40.75109930525767 42.8781751402188 0.0
-44.64664607221794 -40.31474560117277 0.0
-9.48349620752917 34.75512027243715 0.0
8.839568714324972 -36.26944765178768 0.0
34.7531496671939 9.48137247453693 0.0
-35.79167376164647 -9.47755618328256 0.0
16.77397813178351 -37.05172633854437 0.0
-37.99817303550739 17.61249595904635 0.0
37.17101194375822 -17.66060549259279 0.0
-17.56397712116187 -37.24041616734706 0.0
-40.87405509507679 -46.63739324906918 0.0
-36.49599937835107 8.108151523774188 0.0
36.30113923803823 -8.41251196005289 0.0
-7.862078692618412 -36.10177033464163 0.0
8.387693823454779 36.44673844565912 0.0
-46.86026167424509 -36.33176564404296 0.0
-47.84280426237672 -40.10656090758755 0.0
-24.2845560941761 10.04357796342171 0.0
24.45065917299803 -10.63823576451899 0.0
10.67341336290341 25.03669293607638 0.0
-10.66487524635786 -24.46785092437751 0.0
-9.442240815741325 24.5716331986801 0.0
10.55599485582231 -25.14245433446974 0.0
-25.4176844222611 -9.602754668773738 0.0
24.57370499155401 9.440224709866296 0.0
31.7775279301888 -39.86443256499796 0.0
-28.74292279463252 -19.72043452254821 0.0
-19.91350375568665 28.7759248820648 0.0
28.78440433333324 19.90267071306655 0.0
34.27171978713856 -36.12886642978678 0.0
-24.97928262938201 -22.11982520009731 0.0
24.93910918910761 22.11705602762547 0.0
-22.12717428288939 24.92334430133729 0.0
41.4433884223758 30.01312781027387 0.0
-30.30972234325325 41.26155945377006 0.0
-21.76575115563634 -24.81903908726212 0.0
[...]
POINT_DATA 682
SCALARS Disp float 2
LOOKUP_TABLE default
-0.5 0.0
0.5 8.815041492387412e-05
0.5 -0.17377589357102322
-0.5 -0.17388230746413427
-4.9999780151406e-05 -0.2577181735841852
0.0013098499271910354 0.08364181935869501
-0.45198655151511075 -0.1756123465827457
-0.4041942330281792 -0.18042804205309593
-0.3568556627644866 -0.18855628694072554
-0.3101010069675086 -0.20017711809179872
-0.26433697947299467 -0.21468506525349382
-0.2204765914188297 -0.23157863588503522
-0.17863126456737438 -0.250485905063277
-0.13958941889099716 -0.2701118482100181
-0.10376946007054025 -0.28897919171599323
-0.0711066188850041 -0.30512164629931954
-0.04176188276630029 -0.3174405351648849
-0.013605699529659157 -0.3237265602982653
0.013851413167095837 -0.32381358481599715
0.041354443993944875 -0.3175557055918443
0.07120484569639189 -0.3056381234008573
0.10353533429217 -0.28880252879893475
0.13938837270432614 -0.2701049913924574
0.17854134557754245 -0.2503492359058727
0.2202867524349817 -0.2316663828715418
0.264340726217763 -0.21446970506666363
0.3101874789720281 -0.20019655108255138
0.3571222271432008 -0.18898335296804017
0.40410470709184476 -0.18073216734909622
0.4518703918788073 -0.17580072354400472
0.5 -0.16008823414439727
0.5 -0.14699812765507228
0.5 -0.1345015984562166
0.5 -0.12256395214227275
0.5 -0.11161817928000785
0.5 -0.10191091520642502
0.5 -0.0943095676452477
0.5 -0.08842530662500425
0.5 -0.08450866532410642
0.5 -0.08321892853977057
0.5 -0.08389658589584821
0.5 -0.08566490504123084
0.5 -0.08815503178520541
0.5 -0.08993853657226077
0.5 -0.09011765734970335
0.5 -0.08820635441684363
0.5 -0.08527697254875909
0.5 -0.07958738225736663
0.5 -0.07179130367943143
0.5 -0.06213574473104611
0.5 -0.0515411864028936
0.5 -0.03934408691737991
0.5 -0.026412650424098176
0.5 -0.01395174078338151
0.45178278694875557 0.0019735087595531007
0.4043176495898429 0.006844555240980841
0.3569943911608515 0.014894980189407103
0.31004903810004536 0.02643840081998023
0.2643475847755659 0.04088600736654435
0.22038159588907785 0.05795316575183102
0.178605464519604 0.07675642088153672
0.13956220451155965 0.09617556153713602
0.10372515045533337 0.11527662662222996
0.07119342110030974 0.1315572673461084
0.04133815679895117 0.14359705727699268
0.013296646260892197 0.1504236632061194
-0.013732467096073266 0.15028769694149882
-0.041259697188915506 0.14372282475904186
-0.07093114876372766 0.1315487872541165
-0.10357222848014153 0.11516158842589774
-0.1394179436536691 0.09636243852417055
-0.1784953970041152 0.07668528300947709
-0.22022543578499904 0.05793084037064073
-0.26435698274480357 0.04087323561646675
-0.31024485174377653 0.02630837189388817
-0.3567062080061151 0.0151264707364088
-0.4041927866331328 0.00694162230583764
-0.4516995380040428 0.0019403450005203787
-0.5 -0.013689376915159873
-0.5 -0.02683501703819976
-0.5 -0.03936843112158983
-0.5 -0.051298630799929655
-0.5 -0.06223029065388687
-0.5 -0.07164116861650402
-0.5 -0.0795608450077854
-0.5 -0.08558641873405395
-0.5 -0.08909951193091088
-0.5 -0.09042486374193164
-0.5 -0.08997332150892848
-0.5 -0.08824033886624041
-0.5 -0.08586661911370465
-0.5 -0.08380710247005965
-0.5 -0.08330102231036764
-0.5 -0.08479290792604695
-0.5 -0.08828766884178854
-0.5 -0.09408422901439698
-0.5 -0.102036161068039
-0.5 -0.11189825419055863
-0.5 -0.12269524024466066
-0.5 -0.1341189124375436
-0.5 -0.14691122849283772
-0.5 -0.1600483546868174
-0.09438270152990082 -0.25279463573971966
-0.18521535603279493 -0.2358400969450931
-0.2611221262359178 -0.21293084416045857
-0.3304118084869703 -0.18836993877409408
-0.38416237581088153 -0.1624100425544954
-0.4231911700619843 -0.13644233572378778
-0.44622237476046844 -0.11097861977084997
-0.4538832180126355 -0.08749144281585644
-0.4463872418486288 -0.06225941364032717
-0.42320375920772196 -0.03671577389715497
-0.38486478264159596 -0.012079640906214596
-0.3300116978988289 0.015211879053561927
-0.2614978882999777 0.04082083722182164
-0.18340513446144935 0.06234931439365569
-0.09523568895189152 0.07805992252482859
0.09411538357829591 0.07873977361324233
0.1838737778681109 0.0618132584990797
0.26145152538250216 0.040454571568086135
0.32970644948712396 0.015108132072984812
0.38522482818308457 -0.01202338067631791
0.4230662729333087 -0.037757893368870275
0.4461166239532967 -0.06167684967642286
0.45371264016031565 -0.0860036385891767
0.4463355532509746 -0.1114694942144059
0.42297754189244446 -0.13708895428873016
0.38479449173147484 -0.16120811853659664
0.33041533429838493 -0.18870184538401594
0.2617470318043779 -0.2144722242820691
0.18441231513254452 -0.23570375932107931
0.09543186212105316 -0.2522532009124988
0.23029504598122458 0.019847803907073153
-0.2351969881105633 -0.1927236798202006
-0.3880717868544513 -0.06522811355821141
0.38081632743573246 -0.11194233139059846
-0.38007988580889407 -0.11028319646935394
0.37795572177599623 -0.062207096239295115
-0.2259698408692483 0.02234140862334466
0.21862357849212127 -0.1999550563006172
-0.17272200292278378 -0.24478476588784953
0.17124713467068073 0.06977610648920476
-0.460544084527095 -0.08578887906176236
0.45716544176857365 -0.0907731338628731
-0.44918919623080017 -0.09175474519307596
-0.18186474540004813 0.06289610384113699
-0.13603047173745936 -0.25107723768051304
0.13980658105187801 0.07316596010246787
-0.4338321260857818 -0.08371921837881524
0.4362041790688717 -0.08948727007789231
-0.4300297827794281 -0.09231418443606858
0.437793878578621 -0.0844816372614525
0.14431837521173604 -0.2481994387260505
-0.13315006297157422 0.08062211353318326
-0.033948152440516154 -0.2933720698048842
0.46718919173860574 -0.0859350743305317
-0.3573678319523793 -0.01826951999217013
-0.3935887969875989 -0.13700903324325606
0.34326953146523403 -0.16120187362601118
0.391558737263238 -0.031427525260868124
-0.3931783562614767 -0.1719200103758597
0.44611036303737195 -0.00971447059442379
-0.36749820741113143 -0.04176513283982583
0.2972889101300134 -0.004210531913669611
0.37902496708014355 -0.049040337925242365
-0.31507121795821635 -0.1598875487014229
0.36195528891731843 -0.13417185359585776
-0.4225965634667734 -0.0792555714311784
0.2387646671128839 0.038764261040568244
-0.2541349781299009 -0.20361711977128014
0.43563232784277245 -0.10583014459499589
-0.2167484088266519 0.0443747732324061
-0.22912793510461008 -0.18713535686999372
0.23703476730510478 0.009288695335480577
0.3436654701039612 -0.04716453678603761
-0.3400059804524236 -0.12933937418688027
-0.3524879752058847 -0.05249510543202902
0.3516844054638481 -0.12123370907993447
-0.23563074690954303 0.010055780297217707
0.2351021839885903 -0.18387984302635868
-0.287343533577702 0.0004985227176689735
-0.38354928321376563 -0.12101892670499595
0.30687108508806327 -0.027331413572939698
-0.3106396218158673 -0.14432060219068868
-0.30219658599088006 -0.02437986411873309
0.30039507109512714 -0.15014008950809865
-0.43123897136846573 -0.04211362192679716
0.2796676466252957 -0.1773692008896583
0.42499281252716625 -0.12996526837957714
-0.33941475132892934 -0.17069841846476067
0.2602703499203261 -0.2029988046262885
-0.44674545362599455 -0.10909687908169621
0.44508121521809646 -0.059312499743625666
0.0009176501413307542 -0.2795249062555145
0.4596160513001679 -0.08718450419323628
-0.45994265977324983 -0.08656944975026844
-0.12541609143066346 -0.27031718479379013
0.10479671049051019 0.10767741004086068
-0.46990838513779154 -0.08832944386844663
0.46841913794551865 -0.08557039573945613
0.4743579852466608 -0.0890341677814243
-0.47470181429509994 -0.08454481292484319
-0.11986461540385858 0.10041130409879952
0.1148124642347142 -0.27732792519157545
0.48274844813150464 -0.08900427315455328
0.03729080378570478 0.13128379131306017
-0.03240405320882892 -0.3055743162378423
-0.48107459104928496 -0.08919408397825743
0.47965044698694714 -0.0845476499644577
0.013397422279557529 -0.29839245729077046
-0.2707203700369979 0.026084505982126166
0.32214193218786585 0.0066725932196595086
0.4643799617918408 -0.040441993212564635
-0.4681389135242388 -0.12675066731199813
-0.35519793536297306 0.0028504454901861396
-0.40936766438772787 -0.15720784746334163
-0.19155561271687446 -0.22686843440114476
0.20413515238863508 0.046582035474280484
-0.43364258087553126 -0.09765523134321409
0.4293866424776065 -0.09631119605062742
-0.20443612318238208 0.046693555855970806
0.19320218817653095 -0.22992606423988296
-0.40970534274166326 -0.02702463377466489
-0.461306977646352 -0.15328326948981588
-0.40495722888452595 -0.09982065669837441
0.40796917678893996 -0.07486346919717492
-0.18501164732812397 0.04808754616191869
0.17568861786771678 -0.2248992290310359
-0.17427195844401525 -0.23058610759868564
0.18689767260328702 0.04672419939919537
0.4206949159850247 -0.09517904365038742
-0.40292346231562853 -0.07398877249855622
0.3993437312301712 -0.0027505711728319066
0.46631953036683943 -0.027529238311082012
0.1688781821612852 0.07759769763359034
-0.47440908655867386 -0.0816596434947461
0.47820823903439535 -0.09163379264534678
-0.48046663642542053 -0.09122724160204082
-0.17459547747951873 0.07567499687687254
0.17123833302177116 -0.2511109687298596
-0.40727078126486616 -0.015952773415617974
0.420246312283696 -0.017727263647307565
0.4013980261331108 -0.15863271226283293
-0.44524723087342377 -0.029469021949930334
-0.0970670875927944 -0.26934037840163505
0.08782856025490396 0.10251499380353578
0.4492399174158983 -0.08666310670073009
-0.4525787230773058 -0.08772810221790285
0.16745106505913185 0.06414656049745436
-0.43457836775950764 -0.09308681091390562
0.4294654013743942 -0.07962178118090192
-0.17500106893067877 0.060364031739663954
-0.3966452389935905 -0.002751284753869203
-0.4589796430647973 -0.08531112275769934
0.4577341786918227 -0.08846690531068345
-0.07817685121269104 0.10600829098485079
0.08318348926878456 -0.27809872936465935
-0.47011642428653827 -0.04354826360028474
-0.4779961532778614 -0.03232982753284836
-0.41404861959233835 -0.10503386001835496
0.4094444700133232 -0.06831621062947635
0.1455129944371361 -0.23660279170915627
-0.14979370789076935 0.06130322927599257
-0.13423276654425256 -0.24250559070409802
0.14371683716786168 0.06378468946724213
-0.4206553317139646 -0.07319897424720426
0.4193995885365428 -0.10283431348696889
0.3140991977801723 0.00015612689604828692
-0.36535509119931364 -0.058811572060711394
-0.22933762309705827 -0.1898107247343072
0.36402364073339755 -0.11552442402072992
0.34857076706320955 -0.0210086709317561
-0.31892503487637797 -0.0366938283418779
0.3183384286071678 -0.13710554444465958
-0.27351070403331096 -0.1617734579468303
0.428097982469991 -0.1176244325131955
-0.29539796393798684 -0.18431993351273607
-0.2705214267890449 -0.01015714668045231
0.2740649619962607 -0.01232046370710286
0.26969954909388794 -0.16367485832400333
0.3190760840350952 -0.03705893874810042
0.29839308151621885 -0.14834026855202306
-0.2856180587324633 -0.15566472220940117
-0.29882938539106424 -0.025285767750056906
-0.3250096251590097 -0.1657799362125186
-0.32712212463536783 -0.1322902225627099
-0.4457223562999337 -0.09277235494363913
0.43589035262079256 -0.07980014464504367
0.0706088540124749 -0.2698790403160101
-0.09239375557371561 0.08785470035240467
0.08183124134424148 0.09191523366382455
-0.06883496020365132 -0.2702492153653926
0.4481120709774518 -0.0922176470474695
-0.4473897523260359 -0.08057718162791504
0.38363422319874707 -0.04057301909294874
0.2928197119575674 -0.021502508408947994
-0.38645045484317647 -0.06791361099897894
-0.413137438063645 -0.06848283776611477
-0.17601059618488613 -0.22021086527222053
0.39641167663896404 -0.10182049309021177
0.2830481124198085 0.020011606807823008
0.34176875716902505 -0.02972010516880466
0.30322798460518957 -0.017802114272628473
-0.4053815669291898 -0.057216702382432684
-0.23276799316213995 -0.20253793095126316
0.41994491084575497 -0.04736290262970151
0.40855632260530145 -0.10635438937244662
0.3411730464149296 -0.03873839517867548
-0.4388702754029678 -0.06064024240292619
0.21633422859361004 0.022882924140306085
-0.3220881880014652 -0.009484763832684906
0.39366212915591925 -0.1302416341263041
0.37190342211162775 -0.06225380932023916
-0.213664790374567 0.0246256660366285
-0.32098500704138916 0.001242548199357099
-0.3337344630413664 -0.03414718619762899
0.2677461955568938 0.018731982352417045
-0.37703180773977224 -0.10912260931075193
-0.3110309602197026 -0.1518754250647995
-0.2942884563150865 -0.012596779135187188
0.4000722763855968 -0.11779059683432296
0.2110820830472661 -0.1990612748247786
-0.2762762605180415 -0.18453698650747175
-0.3467160190979024 -0.1317820127445752
0.29041980629339503 -0.16287814689047245
0.41411064377308293 -0.05570460028788925
0.33093385104798206 -0.14090597897361942
0.4744975343643459 -0.07689905408649209
0.3208348686908862 -0.15427890884865147
-0.2833119653128924 0.011735926431135918
-0.34965924936290926 -0.13895157946378645
-0.3615915962033349 -0.02936240254850498
-0.42099605767585213 -0.12198094925869023
-0.3274670356712274 -0.022053438509040065
-0.348367949638303 -0.024182185243788113
-0.26149873543098107 -0.19249362188972313
0.34844668260758743 -0.15011893838508142
-0.47648842195842456 -0.08386228096855086
0.480423346850178 -0.08997189536950344
0.07818470292147081 -0.2917547716121984
-0.08224082685667297 0.1185985055452188
-0.272913911540389 -0.17616031196690723
-0.36559871827813645 -0.15288819494194442
-0.22173761544218554 0.050972009925168
0.3716753920654036 -0.12151891974251985
0.30254142550508745 -0.18081083345614266
-0.40468131667825236 -0.04629000607512835
-0.3867859353265683 -0.1287108511139273
-0.37484952393418813 -0.05356817187458254
-0.2697620417793269 -0.16920717711313019
0.26170152789900436 0.006356264783621012
-0.46255281033768203 -0.05554574287294988
0.18356578699496293 0.041055388563654205
0.2448235594903908 0.023132956501689457
0.34474492665428386 -0.12764616757458436
0.46550014336772666 -0.10188605141401737
-0.35586645489471036 -0.14627202196121092
0.3904253931039441 -0.10853739084847258
-0.17689438601133436 -0.2187906052476798
-0.3930194611499763 -0.06837749736144853
-0.34640299792529783 -0.04690315726182821
0.3110950058825758 -0.1680272370475883
0.3849930502807001 -0.14295858807673145
0.3531175947894977 -0.14739171751539734
0.359396736295204 -0.013356920452239645
0.38760783235650553 -0.06724939858422731
-0.18191765073800503 0.041967142127650486
0.18843493072455886 -0.21170269984656961
-0.3902881237185667 -0.10608255930241296
-0.4161116829528842 -0.11456252534671
-0.4536625198851981 -0.11820753322597181
0.27279705398340276 -0.18959540570532826
-0.47297620488540115 -0.06695506512964482
-0.4750430062098279 -0.08584864697536801
0.29014464842395005 -0.19331206412506247
0.06870816470549347 0.12274784579990951
-0.08041347353852545 -0.29236051783339045
-0.4785421167157039 -0.09037966199332906
0.4790652282630465 -0.08347007359768806
0.46476826221255607 -0.11880366258863079
-0.46787098795179877 -0.09867559227545082
0.097001659965151 0.10520130361746355
-0.46620059975199374 -0.08904270019072492
0.3744243165296549 -0.05572311770927653
-0.4623476201112125 -0.08483547802207733
0.469311097200155 -0.08960124747953103
0.10821125466094124 -0.27214834816907985
-0.1016380869128832 0.10350143054880487
0.15992151630498028 -0.2531800901895612
0.21554122926841682 -0.22716723908353728
-0.2561888134893003 0.009983607065008266
-0.3916343665933534 -0.03143565947957239
0.45700919580157634 -0.050179587572578045
0.330593183263928 -0.1771535091226675
0.42765305958428457 -0.165662689250239
0.2143473732832333 0.04731519776926126
-0.13963695065669413 -0.2676488527202457
0.47680391191985294 -0.08715544202605897
0.26419878112368433 -0.0023514857622554896
0.45890984802329293 -0.09689447275939882
-0.21584442928826655 -0.22291887956887604
-0.3782350461361906 -0.11590647092788167
-0.3117853057359549 0.01379647574953579
-0.10100555588395001 -0.2874545002470608
0.10324059655317075 0.11323694669391844
-0.48586736476769665 -0.08986824106914494
0.4853668839707723 -0.08386284051185128
-0.4897561819968836 -0.08414014785024965
0.10004240369309622 -0.28911004158332143
-0.10000619318379282 0.11474959602535055
-0.035725389280296595 -0.29794230638309216
-0.47156396883652923 -0.08833550915413788
0.2470584072627371 -0.18841588964610603
-0.25926770906159113 0.0008324613122270076
0.40950499747612684 -0.06418073886748059
0.36867486419883666 -0.004067427308659023
0.3475395868418441 -0.04829547973922156
-0.4370192379219118 -0.08453541274816903
0.2552058043291651 -0.17656077618268495
0.44356980386790856 -0.07020673815410784
-0.24402417850491293 0.025322486853706402
0.1349430562369259 0.09339750227465181
-0.35058278071810645 -0.1238067289521292
-0.0290677143082467 -0.2873856669312883
0.032066962696338075 0.11235632984725792
0.4621504008601463 -0.08649577537503625
-0.4640744313724073 -0.0872677969375461
0.4606008683710325 -0.08758232584856984
-0.4605199052029886 -0.08605971494056074
0.05569906991417594 -0.28301752160838606
-0.03888676187447783 0.1131490883334112
-0.239654777473285 0.0357559940865821
-0.2103442878041809 -0.22061057283856902
-0.4096745626252181 -0.1077644363492022
0.43595402272285605 -0.09819858985020638
-0.37718318129357264 -0.15898176210242465
-0.42821802919886953 -0.13030472379132693
0.23551825694195783 -0.20279729134533736
-0.4776709828993157 -0.08696404891443683
0.032670734304142614 0.09831660508615399
-0.04896479041784064 -0.26816994719210385
-0.454061268996481 -0.07842650169185018
0.4539306227956055 -0.09552716837845492
0.45617727185220125 -0.08226776645203651
-0.4560258409093117 -0.09196328930210515
0.045079200513355 -0.26892032159313306
-0.04076874264250897 0.09587121532091099
-0.4433356342978398 -0.0784031648672895
0.21017166310599586 0.057088610065838125
-0.042711384671430076 -0.3112530321948487
0.04120336173094917 0.13776493865473963
0.49057966781147766 -0.08406055447291096
-0.49086581020536396 -0.08984692425056857
-0.10747178782403317 -0.2725796193232421
-0.4574123596323363 -0.08834318914492502
0.4603023669576506 -0.0850641672539867
0.25920827538643054 -0.21002882889819652
-0.4740585613489083 -0.10905320409262739
-0.44727216721971047 -0.13993252596989902
0.2566469001409718 0.037376795130842015
0.42901198604482166 -0.038586892997540444
-0.4365910392835086 -0.010985700540329168
-0.12329486802830776 -0.24846942120485954
0.10602538821295591 0.08360133152802271
-0.44010042017479434 -0.08352521616246945
0.4247001595315242 -0.09509749706249161
-0.43052404107262965 -0.09282715234447657
0.11057676674540654 -0.25595028002360454
-0.2508351214814199 0.040592152946593824
0.48940443058729893 -0.08944321149526528
-0.03379306591341333 0.1410980184104981
0.21621691330257595 0.033978220446170306
-0.4028261536188 -0.14466506358867395
0.4370165792950915 -0.030537180827888567
0.3746113013887098 -0.15682268496811075
-0.4139268465625264 -0.0779271062515101
-0.1248889006661415 -0.251444529598753
0.4307923936085555 -0.09102485121270996
-0.20293973066741122 0.05613745770150497
0.40165539401038575 -0.02362832023371631
0.19328881171273246 -0.23531282284677082
-0.4561974673629559 -0.09445411788360347
0.45425679023254933 -0.0858034693835385
-0.41005016292337165 -0.10092737101671172
0.13215354998861117 0.08905227341515794
0.19367999120512405 -0.22139179397020847
0.40826659223970224 -0.07084035949354531
-0.43831235889125447 -0.10279069494359094
-0.2142180299840233 0.03546996714700618
-0.14612926617072683 0.08113087641343286
0.22758586140873324 -0.21470048331275393
-0.4516931956658248 -0.08779673187922306
0.2925844324292376 0.02410753897413851
0.15197456880470503 -0.2510902733376856
0.4345869421967355 -0.07640498591312317
0.4059444087012222 -0.1021393384451116
-0.20703088183828308 -0.2122016273298258
-0.028162670522326117 -0.2823614754477635
0.4584415646135411 -0.08758409731116394
-0.33161860806986565 -0.18494754193347843
-0.3687670781855694 -0.01341395062580513
0.3749512852467431 -0.172230717530915
0.47242258726685815 -0.08654588358247535
-0.1626269305327808 0.07795704097058641
-0.45732892487441396 -0.08775025686845178
0.4620586026215179 -0.0870120394221468
0.018267365820904734 -0.2857139974670452
-0.008807778078170053 0.11253030006970119